 &FCI NORB=  4,NELEC=  4,MS2= 0, 
   ORBSYM=1,1,1,1,
   ISYM=1,
  /
 +4.9981430741451233e-01   1   1   1   1 
 -1.1896815162827970e-01   1   1   1   2 
 +0.0000000000000000e+00   1   1   1   3 
 +0.0000000000000000e+00   1   1   1   4 
 -1.1896815162827970e-01   1   1   2   1 
 +3.8987326775398512e-01   1   1   2   2 
 +0.0000000000000000e+00   1   1   2   3 
 +0.0000000000000000e+00   1   1   2   4 
 +0.0000000000000000e+00   1   1   3   1 
 +0.0000000000000000e+00   1   1   3   2 
 +4.5553189683124129e-01   1   1   3   3 
 -1.0852512875663289e-01   1   1   3   4 
 +0.0000000000000000e+00   1   1   4   1 
 +0.0000000000000000e+00   1   1   4   2 
 -1.0852512875663289e-01   1   1   4   3 
 +3.8160717964683810e-01   1   1   4   4 
 -1.1896815162827970e-01   1   2   1   1 
 +1.1021420405082399e-01   1   2   1   2 
 +0.0000000000000000e+00   1   2   1   3 
 +0.0000000000000000e+00   1   2   1   4 
 +1.1021420405082399e-01   1   2   2   1 
 -5.2082776813001191e-02   1   2   2   2 
 +0.0000000000000000e+00   1   2   2   3 
 +0.0000000000000000e+00   1   2   2   4 
 +0.0000000000000000e+00   1   2   3   1 
 +0.0000000000000000e+00   1   2   3   2 
 -8.3881688190723558e-02   1   2   3   3 
 +1.0152676229627140e-01   1   2   3   4 
 +0.0000000000000000e+00   1   2   4   1 
 +0.0000000000000000e+00   1   2   4   2 
 +1.0152676229627140e-01   1   2   4   3 
 -4.0615028986241968e-02   1   2   4   4 
 +0.0000000000000000e+00   1   3   1   1 
 +0.0000000000000000e+00   1   3   1   2 
 +5.1755903804691208e-02   1   3   1   3 
 +2.2387588713306740e-02   1   3   1   4 
 +0.0000000000000000e+00   1   3   2   1 
 +0.0000000000000000e+00   1   3   2   2 
 +2.6800650103138170e-02   1   3   2   3 
 +5.2629388747962011e-02   1   3   2   4 
 +5.1755903804691208e-02   1   3   3   1 
 +2.6800650103138170e-02   1   3   3   2 
 +0.0000000000000000e+00   1   3   3   3 
 +0.0000000000000000e+00   1   3   3   4 
 +2.2387588713306740e-02   1   3   4   1 
 +5.2629388747962011e-02   1   3   4   2 
 +0.0000000000000000e+00   1   3   4   3 
 +0.0000000000000000e+00   1   3   4   4 
 +0.0000000000000000e+00   1   4   1   1 
 +0.0000000000000000e+00   1   4   1   2 
 +2.2387588713306740e-02   1   4   1   3 
 +4.3776638610301309e-02   1   4   1   4 
 +0.0000000000000000e+00   1   4   2   1 
 +0.0000000000000000e+00   1   4   2   2 
 +4.2499172647342029e-02   1   4   2   3 
 +4.2126766015828529e-02   1   4   2   4 
 +2.2387588713306740e-02   1   4   3   1 
 +4.2499172647342029e-02   1   4   3   2 
 +0.0000000000000000e+00   1   4   3   3 
 +0.0000000000000000e+00   1   4   3   4 
 +4.3776638610301309e-02   1   4   4   1 
 +4.2126766015828529e-02   1   4   4   2 
 +0.0000000000000000e+00   1   4   4   3 
 +0.0000000000000000e+00   1   4   4   4 
 -1.1896815162827970e-01   2   1   1   1 
 +1.1021420405082399e-01   2   1   1   2 
 +0.0000000000000000e+00   2   1   1   3 
 +0.0000000000000000e+00   2   1   1   4 
 +1.1021420405082399e-01   2   1   2   1 
 -5.2082776813001191e-02   2   1   2   2 
 +0.0000000000000000e+00   2   1   2   3 
 +0.0000000000000000e+00   2   1   2   4 
 +0.0000000000000000e+00   2   1   3   1 
 +0.0000000000000000e+00   2   1   3   2 
 -8.3881688190723558e-02   2   1   3   3 
 +1.0152676229627140e-01   2   1   3   4 
 +0.0000000000000000e+00   2   1   4   1 
 +0.0000000000000000e+00   2   1   4   2 
 +1.0152676229627140e-01   2   1   4   3 
 -4.0615028986241968e-02   2   1   4   4 
 +3.8987326775398512e-01   2   2   1   1 
 -5.2082776813001191e-02   2   2   1   2 
 +0.0000000000000000e+00   2   2   1   3 
 +0.0000000000000000e+00   2   2   1   4 
 -5.2082776813001191e-02   2   2   2   1 
 +3.4833698855519818e-01   2   2   2   2 
 +0.0000000000000000e+00   2   2   2   3 
 +0.0000000000000000e+00   2   2   2   4 
 +0.0000000000000000e+00   2   2   3   1 
 +0.0000000000000000e+00   2   2   3   2 
 +3.7727155522540051e-01   2   2   3   3 
 -4.4592333797358892e-02   2   2   3   4 
 +0.0000000000000000e+00   2   2   4   1 
 +0.0000000000000000e+00   2   2   4   2 
 -4.4592333797358892e-02   2   2   4   3 
 +3.3923088275444652e-01   2   2   4   4 
 +0.0000000000000000e+00   2   3   1   1 
 +0.0000000000000000e+00   2   3   1   2 
 +2.6800650103138170e-02   2   3   1   3 
 +4.2499172647342029e-02   2   3   1   4 
 +0.0000000000000000e+00   2   3   2   1 
 +0.0000000000000000e+00   2   3   2   2 
 +4.7374028124058623e-02   2   3   2   3 
 +4.3891711495916752e-02   2   3   2   4 
 +2.6800650103138170e-02   2   3   3   1 
 +4.7374028124058623e-02   2   3   3   2 
 +0.0000000000000000e+00   2   3   3   3 
 +0.0000000000000000e+00   2   3   3   4 
 +4.2499172647342029e-02   2   3   4   1 
 +4.3891711495916752e-02   2   3   4   2 
 +0.0000000000000000e+00   2   3   4   3 
 +0.0000000000000000e+00   2   3   4   4 
 +0.0000000000000000e+00   2   4   1   1 
 +0.0000000000000000e+00   2   4   1   2 
 +5.2629388747962011e-02   2   4   1   3 
 +4.2126766015828529e-02   2   4   1   4 
 +0.0000000000000000e+00   2   4   2   1 
 +0.0000000000000000e+00   2   4   2   2 
 +4.3891711495916752e-02   2   4   2   3 
 +7.4171120055880849e-02   2   4   2   4 
 +5.2629388747962011e-02   2   4   3   1 
 +4.3891711495916752e-02   2   4   3   2 
 +0.0000000000000000e+00   2   4   3   3 
 +0.0000000000000000e+00   2   4   3   4 
 +4.2126766015828529e-02   2   4   4   1 
 +7.4171120055880849e-02   2   4   4   2 
 +0.0000000000000000e+00   2   4   4   3 
 +0.0000000000000000e+00   2   4   4   4 
 +0.0000000000000000e+00   3   1   1   1 
 +0.0000000000000000e+00   3   1   1   2 
 +5.1755903804691208e-02   3   1   1   3 
 +2.2387588713306740e-02   3   1   1   4 
 +0.0000000000000000e+00   3   1   2   1 
 +0.0000000000000000e+00   3   1   2   2 
 +2.6800650103138170e-02   3   1   2   3 
 +5.2629388747962011e-02   3   1   2   4 
 +5.1755903804691208e-02   3   1   3   1 
 +2.6800650103138170e-02   3   1   3   2 
 +0.0000000000000000e+00   3   1   3   3 
 +0.0000000000000000e+00   3   1   3   4 
 +2.2387588713306740e-02   3   1   4   1 
 +5.2629388747962011e-02   3   1   4   2 
 +0.0000000000000000e+00   3   1   4   3 
 +0.0000000000000000e+00   3   1   4   4 
 +0.0000000000000000e+00   3   2   1   1 
 +0.0000000000000000e+00   3   2   1   2 
 +2.6800650103138170e-02   3   2   1   3 
 +4.2499172647342029e-02   3   2   1   4 
 +0.0000000000000000e+00   3   2   2   1 
 +0.0000000000000000e+00   3   2   2   2 
 +4.7374028124058623e-02   3   2   2   3 
 +4.3891711495916752e-02   3   2   2   4 
 +2.6800650103138170e-02   3   2   3   1 
 +4.7374028124058623e-02   3   2   3   2 
 +0.0000000000000000e+00   3   2   3   3 
 +0.0000000000000000e+00   3   2   3   4 
 +4.2499172647342029e-02   3   2   4   1 
 +4.3891711495916752e-02   3   2   4   2 
 +0.0000000000000000e+00   3   2   4   3 
 +0.0000000000000000e+00   3   2   4   4 
 +4.5553189683124129e-01   3   3   1   1 
 -8.3881688190723558e-02   3   3   1   2 
 +0.0000000000000000e+00   3   3   1   3 
 +0.0000000000000000e+00   3   3   1   4 
 -8.3881688190723558e-02   3   3   2   1 
 +3.7727155522540051e-01   3   3   2   2 
 +0.0000000000000000e+00   3   3   2   3 
 +0.0000000000000000e+00   3   3   2   4 
 +0.0000000000000000e+00   3   3   3   1 
 +0.0000000000000000e+00   3   3   3   2 
 +4.7871186163717461e-01   3   3   3   3 
 -1.1250623236675510e-01   3   3   3   4 
 +0.0000000000000000e+00   3   3   4   1 
 +0.0000000000000000e+00   3   3   4   2 
 -1.1250623236675510e-01   3   3   4   3 
 +3.9470616131531627e-01   3   3   4   4 
 -1.0852512875663289e-01   3   4   1   1 
 +1.0152676229627140e-01   3   4   1   2 
 +0.0000000000000000e+00   3   4   1   3 
 +0.0000000000000000e+00   3   4   1   4 
 +1.0152676229627140e-01   3   4   2   1 
 -4.4592333797358892e-02   3   4   2   2 
 +0.0000000000000000e+00   3   4   2   3 
 +0.0000000000000000e+00   3   4   2   4 
 +0.0000000000000000e+00   3   4   3   1 
 +0.0000000000000000e+00   3   4   3   2 
 -1.1250623236675510e-01   3   4   3   3 
 +1.2534977076454731e-01   3   4   3   4 
 +0.0000000000000000e+00   3   4   4   1 
 +0.0000000000000000e+00   3   4   4   2 
 +1.2534977076454731e-01   3   4   4   3 
 -5.8761404871379368e-02   3   4   4   4 
 +0.0000000000000000e+00   4   1   1   1 
 +0.0000000000000000e+00   4   1   1   2 
 +2.2387588713306740e-02   4   1   1   3 
 +4.3776638610301309e-02   4   1   1   4 
 +0.0000000000000000e+00   4   1   2   1 
 +0.0000000000000000e+00   4   1   2   2 
 +4.2499172647342029e-02   4   1   2   3 
 +4.2126766015828529e-02   4   1   2   4 
 +2.2387588713306740e-02   4   1   3   1 
 +4.2499172647342029e-02   4   1   3   2 
 +0.0000000000000000e+00   4   1   3   3 
 +0.0000000000000000e+00   4   1   3   4 
 +4.3776638610301309e-02   4   1   4   1 
 +4.2126766015828529e-02   4   1   4   2 
 +0.0000000000000000e+00   4   1   4   3 
 +0.0000000000000000e+00   4   1   4   4 
 +0.0000000000000000e+00   4   2   1   1 
 +0.0000000000000000e+00   4   2   1   2 
 +5.2629388747962011e-02   4   2   1   3 
 +4.2126766015828529e-02   4   2   1   4 
 +0.0000000000000000e+00   4   2   2   1 
 +0.0000000000000000e+00   4   2   2   2 
 +4.3891711495916752e-02   4   2   2   3 
 +7.4171120055880849e-02   4   2   2   4 
 +5.2629388747962011e-02   4   2   3   1 
 +4.3891711495916752e-02   4   2   3   2 
 +0.0000000000000000e+00   4   2   3   3 
 +0.0000000000000000e+00   4   2   3   4 
 +4.2126766015828529e-02   4   2   4   1 
 +7.4171120055880849e-02   4   2   4   2 
 +0.0000000000000000e+00   4   2   4   3 
 +0.0000000000000000e+00   4   2   4   4 
 -1.0852512875663289e-01   4   3   1   1 
 +1.0152676229627140e-01   4   3   1   2 
 +0.0000000000000000e+00   4   3   1   3 
 +0.0000000000000000e+00   4   3   1   4 
 +1.0152676229627140e-01   4   3   2   1 
 -4.4592333797358892e-02   4   3   2   2 
 +0.0000000000000000e+00   4   3   2   3 
 +0.0000000000000000e+00   4   3   2   4 
 +0.0000000000000000e+00   4   3   3   1 
 +0.0000000000000000e+00   4   3   3   2 
 -1.1250623236675510e-01   4   3   3   3 
 +1.2534977076454731e-01   4   3   3   4 
 +0.0000000000000000e+00   4   3   4   1 
 +0.0000000000000000e+00   4   3   4   2 
 +1.2534977076454731e-01   4   3   4   3 
 -5.8761404871379368e-02   4   3   4   4 
 +3.8160717964683810e-01   4   4   1   1 
 -4.0615028986241968e-02   4   4   1   2 
 +0.0000000000000000e+00   4   4   1   3 
 +0.0000000000000000e+00   4   4   1   4 
 -4.0615028986241968e-02   4   4   2   1 
 +3.3923088275444652e-01   4   4   2   2 
 +0.0000000000000000e+00   4   4   2   3 
 +0.0000000000000000e+00   4   4   2   4 
 +0.0000000000000000e+00   4   4   3   1 
 +0.0000000000000000e+00   4   4   3   2 
 +3.9470616131531627e-01   4   4   3   3 
 -5.8761404871379368e-02   4   4   3   4 
 +0.0000000000000000e+00   4   4   4   1 
 +0.0000000000000000e+00   4   4   4   2 
 -5.8761404871379368e-02   4   4   4   3 
 +3.5593353206332862e-01   4   4   4   4 
 -1.8084432014330829e+00   1   1   0   0 
 +3.1353297446309480e-01   1   2   0   0 
 +0.0000000000000000e+00   1   3   0   0 
 +0.0000000000000000e+00   1   4   0   0 
 +3.1353297446309480e-01   2   1   0   0 
 -1.3791551930190400e+00   2   2   0   0 
 +0.0000000000000000e+00   2   3   0   0 
 +0.0000000000000000e+00   2   4   0   0 
 +0.0000000000000000e+00   3   1   0   0 
 +0.0000000000000000e+00   3   2   0   0 
 -1.8028177429105221e+00   3   3   0   0 
 +3.5194493239911878e-01   3   4   0   0 
 +0.0000000000000000e+00   4   1   0   0 
 +0.0000000000000000e+00   4   2   0   0 
 +3.5194493239911878e-01   4   3   0   0 
 -1.3445814924715791e+00   4   4   0   0 
 -7.1178295381646819e+01   0   0   0   0 
