 &FCI NORB=  4,NELEC=  4,MS2= 0,
  ORBSYM=1,1,3,3,
  ISYM=1,
 /
  0.4998143074145123E+00   1   1   1   1
 -0.1189681516282797E+00   2   1   1   1
  0.1102142040508240E+00   2   1   2   1
  0.3898732677539851E+00   2   2   1   1
 -0.5208277681300119E-01   2   2   2   1
  0.3483369885551982E+00   2   2   2   2
  0.4555318968312413E+00   3   3   1   1
 -0.8388168819072356E-01   3   3   2   1
  0.3772715552254005E+00   3   3   2   2
  0.4787118616371746E+00   3   3   3   3
 -0.1085251287566329E+00   4   3   1   1
  0.1015267622962714E+00   4   3   2   1
 -0.4459233379735889E-01   4   3   2   2
 -0.1125062323667551E+00   4   3   3   3
  0.1253497707645473E+00   4   3   4   3
  0.3816071796468381E+00   4   4   1   1
 -0.4061502898624197E-01   4   4   2   1
  0.3392308827544465E+00   4   4   2   2
  0.3947061613153163E+00   4   4   3   3
 -0.5876140487137937E-01   4   4   4   3
  0.3559335320633286E+00   4   4   4   4
  0.5175590380469121E-01   3   1   3   1
  0.2680065010313817E-01   3   2   3   1
  0.4737402812405862E-01   3   2   3   2
  0.2238758871330674E-01   4   1   3   1
  0.4249917264734203E-01   4   1   3   2
  0.4377663861030131E-01   4   1   4   1
  0.5262938874796201E-01   4   2   3   1
  0.4389171149591675E-01   4   2   3   2
  0.4212676601582853E-01   4   2   4   1
  0.7417112005588085E-01   4   2   4   2
 -0.1808443201433083E+01   1   1   0   0
  0.3135329744630948E+00   2   1   0   0
 -0.1379155193019040E+01   2   2   0   0
 -0.1802817742910522E+01   3   3   0   0
  0.3519449323991188E+00   4   3   0   0
 -0.1344581492471579E+01   4   4   0   0
 -0.7117829538164682E+02   0   0   0   0
