
 Primary working directories    : /scratch/veis/Molpro_96367
 Secondary working directories  : /scratch/veis/Molpro_96367
 Wavefunction directory         : /home/veis/zkousky/h2o_disoc/r_1.8/
 Main file repository           : /scratch/veis/Molpro_96367/

 SHA1      : 2c68d29c09da70e1723824271fadde4bcd5f07a0
 ARCHNAME  : Linux/x86_64
 FC        : /usr/local/programs/common/intel/compiler/2011.5.220/composerxe-2011.5.220/bin/intel64/ifort
 FCVERSION : 12.0.5
 BLASLIB   : -L/usr/local/programs/common/intel/compiler/2011.5.220/composerxe-2011.5.220/mkl/lib/intel64 -lmkl_intel_ilp64 -lmkl_sequential -lmkl_core
 id        : jhinst

 Nodes     nprocs
 b28          7
 Number of processes for MPI-2 version of Molpro:   nprocs(total)=    8   nprocs(compute)=    7   nprocs(helper)=    1
 ga_uses_ma=false, calling ma_init with nominal heap.
 GA-space will be limited to   8.0 MW (determined by -G option)

 Using customized tuning parameters: mindgm=12; mindgv=20; mindgc=4; mindgr=1; noblas=0; minvec=7
 default implementation of scratch files=sf  

 ***,h2o
 memory,500m
 
 r=0.9584*1.8
 a=104.45
 
                                                                                 !symmetry,nosym
 geometry={angstrom
   O;
   H,1,r;
   H,1,r,2,a;}
 
 basis=cc-pVTZ
 spherical
 
 {rhf
 shift,-1.0,-0.5
 wf,10,1,0
 orbprint,6}
 
 {fci
 wf,10,1,0
 core,2,1,0,0
 occ,4,1,2,0
                                                                                 !state,4
                                                                                 !dump
 }
 
 {fci
 wf,10,1,0
 core,2,1,0,0
 occ,4,1,2,0
 dump
 }
 
                                                                                 !put,molden,h2o.molden;
 

 Variables initialized (766), CPU time= 0.00 sec
 Commands  initialized (545), CPU time= 0.01 sec, 513 directives.
 Default parameters read. Elapsed time= 0.06 sec

 Checking input...
 Passed
1


                                         ***  PROGRAM SYSTEM MOLPRO  ***
                         Copyright, University College Cardiff Consultants Limited, 2008

                                    Version 2012.1 linked 30 Oct 2012 00:42:05


 **********************************************************************************************************************************
 LABEL *   h2o                                                                           
 Linux-2.6.38.6-client/b28(x86_64) 64 bit mpp version                                    DATE: 26-Sep-16          TIME: 20:21:35  
 **********************************************************************************************************************************

 SHA1:             2c68d29c09da70e1723824271fadde4bcd5f07a0
 **********************************************************************************************************************************
 SETTING R              =         1.72512000                                  
 SETTING A              =       104.45000000                                  

 Variable memory set to    8388608 words,  buffer space   230000 words

 SETTING BASIS          =    CC-PVTZ


 Recomputing integrals since basis changed


 Using spherical harmonics

 Library entry O      S cc-pVTZ              selected for orbital group  1
 Library entry O      P cc-pVTZ              selected for orbital group  1
 Library entry O      D cc-pVTZ              selected for orbital group  1
 Library entry O      F cc-pVTZ              selected for orbital group  1
 Library entry H      S cc-pVTZ              selected for orbital group  2
 Library entry H      P cc-pVTZ              selected for orbital group  2
 Library entry H      D cc-pVTZ              selected for orbital group  2

1PROGRAM * SEWARD (Integral evaluation for generally contracted gaussian basis sets)     Author: Roland Lindh, 1990

 Geometry written to block  1 of record 700

 Orientation using atomic masses  
 Molecule type: Asymmetric top,     Order of principal axis = 2
 Symmetry elements: X,Y
 Rotational constants:      87.9311781    252.7847012    134.8327666 GHz  (calculated with average atomic masses)

 Point group  C2v 



 ATOMIC COORDINATES

 NR  ATOM    CHARGE       X              Y              Z

   1  O       8.00    0.000000000    0.000000000   -0.223456015
   2  H       1.00    0.000000000    2.576780354    1.773499500
   3  H       1.00    0.000000000   -2.576780354    1.773499500

 NUCLEAR CHARGE:                   10
 NUMBER OF PRIMITIVE AOS:          81
 NUMBER OF SYMMETRY AOS:           74
 NUMBER OF CONTRACTIONS:           58   (  23A1  +  11B1  +  17B2  +   7A2  )
 NUMBER OF CORE ORBITALS:           1   (   1A1  +   0B1  +   0B2  +   0A2  )
 NUMBER OF VALENCE ORBITALS:        6   (   3A1  +   1B1  +   2B2  +   0A2  )


 NUCLEAR REPULSION ENERGY    5.10200952


 Eigenvalues of metric

         1 0.937E-02 0.136E-01 0.489E-01 0.106E+00 0.212E+00 0.303E+00 0.390E+00 0.406E+00
         2 0.497E-01 0.279E+00 0.443E+00 0.495E+00 0.967E+00 0.993E+00 0.101E+01 0.103E+01
         3 0.126E-01 0.481E-01 0.851E-01 0.179E+00 0.323E+00 0.398E+00 0.468E+00 0.909E+00
         4 0.352E+00 0.496E+00 0.962E+00 0.100E+01 0.104E+01 0.146E+01 0.169E+01


 Contracted 2-electron integrals neglected if value below      1.0D-11
 AO integral compression algorithm  1   Integral accuracy      1.0D-11

     3.408 MB (compressed) written to integral file ( 74.3%)

     Node minimum: 0.262 MB, node maximum: 0.524 MB


 NUMBER OF SORTED TWO-ELECTRON INTEGRALS:      55303.     BUFFER LENGTH:  32768
 NUMBER OF SEGMENTS:   1  SEGMENT LENGTH:      55303      RECORD LENGTH: 524288

 Memory used in sort:       0.61 MW

 SORT1 READ      562034. AND WROTE       51517. INTEGRALS IN      1 RECORDS. CPU TIME:     0.03 SEC, REAL TIME:     0.10 SEC
 SORT2 READ      366996. AND WROTE      396151. INTEGRALS IN     14 RECORDS. CPU TIME:     0.00 SEC, REAL TIME:     0.01 SEC

 Node minimum:       55303.  Node maximum:       57357. integrals

 OPERATOR DM      FOR CENTER  0  COORDINATES:    0.000000    0.000000    0.000000


 **********************************************************************************************************************************
 DATASETS  * FILE   NREC   LENGTH (MB)   RECORD NAMES
              1      18        6.10       500      610      700      900      950      970     1000      129      960     1100   
                                          VAR    BASINP    GEOM    SYMINP    ZMAT    AOBASIS   BASIS     P2S    ABASIS      S 
                                         1400     1410     1200     1210     1080     1600     1650     1700   
                                           T        V       H0       H01     AOSYM     SMH    MOLCAS    OPER   

 PROGRAMS   *        TOTAL       INT
 CPU TIMES  *         0.15      0.06
 REAL TIME  *         1.74 SEC
 DISK USED  *        31.41 MB      
 GA USED    *         0.00 MB       (max)       0.00 MB       (current)
 **********************************************************************************************************************************

1PROGRAM * RHF-SCF (CLOSED SHELL)       Authors: W. Meyer, H.-J. Werner


 NUMBER OF ELECTRONS:       5+    5-    SPACE SYMMETRY=1    SPIN SYMMETRY: Singlet 
 CONVERGENCE THRESHOLDS:    1.00E-05 (Density)    1.00E-07 (Energy)
 MAX. NUMBER OF ITERATIONS:       60
 INTERPOLATION TYPE:            DIIS
 INTERPOLATION STEPS:              2 (START)      1 (STEP)
 LEVEL SHIFTS:                 -1.00 (CLOSED) -0.50 (OPEN) 



 Orbital guess generated from atomic densities. Full valence occupancy:    4   1   2   0

 Molecular orbital dump at record        2100.2

 ITERATION    DDIFF          GRAD             ENERGY        2-EL.EN.            DIPOLE MOMENTS         DIIS   ORB.
    1      0.000D+00      0.000D+00       -75.52623474     75.259405    0.00000    0.00000    2.64898    0    start
    2      0.000D+00      0.390D-01       -75.66701920     69.444980    0.00000    0.00000    1.81035    1    diag
    3      0.321D-01      0.146D-01       -75.68345640     69.485731    0.00000    0.00000    1.59349    2    diag
    4      0.834D-02      0.789D-02       -75.69673818     69.032236    0.00000    0.00000    1.27205    3    diag
    5      0.902D-02      0.434D-02       -75.70287252     68.671848    0.00000    0.00000    0.99182    4    diag
    6      0.893D-02      0.147D-02       -75.70353702     68.574821    0.00000    0.00000    0.91265    5    diag
    7      0.284D-02      0.509D-03       -75.70361063     68.549972    0.00000    0.00000    0.90128    6    diag
    8      0.950D-03      0.211D-03       -75.70362741     68.543595    0.00000    0.00000    0.89799    7    diag
    9      0.319D-03      0.169D-03       -75.70365029     68.543133    0.00000    0.00000    0.89626    8    diag
   10      0.511D-03      0.124D-03       -75.70366939     68.534612    0.00000    0.00000    0.88972    9    orth
   11      0.675D-03      0.674D-04       -75.70367508     68.536833    0.00000    0.00000    0.88894    9    diag
   12      0.502D-03      0.193D-04       -75.70367531     68.536058    0.00000    0.00000    0.88847    9    diag
   13      0.926D-04      0.697D-05       -75.70367532     68.536134    0.00000    0.00000    0.88845    9    diag
   14      0.205D-04      0.225D-05       -75.70367532     68.536185    0.00000    0.00000    0.88850    9    diag
   15      0.303D-05      0.817D-06       -75.70367532     68.536196    0.00000    0.00000    0.88851    0    orth

 Final occupancy:   3   1   1   0

 !RHF STATE 1.1 Energy                -75.703675321567
 Nuclear energy                         5.10200952
 One-electron energy                 -115.07378273
 Two-electron energy                   34.26809789
 Virial quotient                       -1.00979594
 !RHF STATE 1.1 Dipole moment           0.00000000     0.00000000     0.88850520
 Dipole moment /Debye                   0.00000000     0.00000000     2.25820704

 ELECTRON ORBITALS
 =================


   Orb  Occ    Energy  Couls-En    Coefficients

                                   1 1s      1 1s      1 1s      1 1s      1 2pz     1 2pz     1 2pz     1 3d0     1 3d2+    1 3d0  
                                   1 3d2+    1 4f0     1 4f2+    2 1s      2 1s      2 1s      2 2pz     2 2py     2 2pz     2 2py  
                                   2 3d0     2 3d2+    2 3d1- 

   1.1   2   -20.6472  -53.1850  1.000077 -0.000598 -0.000387  0.000997  0.003207 -0.002357 -0.000424 -0.000100  0.000229 -0.000035
                                 0.000054 -0.000015 -0.000034 -0.000007 -0.000035 -0.000414  0.000005 -0.000026  0.000091  0.000236
                                 0.000027 -0.000045  0.000090

   2.1   2    -1.2024   -8.7272 -0.004699  0.964795  0.003261  0.009448 -0.012037  0.006419  0.004455 -0.000304  0.000450 -0.000367
                                -0.001064 -0.000387 -0.000798  0.097363 -0.004933 -0.020357 -0.001587 -0.002004 -0.007743 -0.010840
                                 0.000141 -0.001716  0.002609

   3.1   2    -0.4493   -5.8684 -0.003167 -0.162727 -0.006292 -0.038846  0.694253 -0.002424  0.071087  0.001699 -0.001166  0.009159
                                -0.009660  0.000675 -0.003229  0.508483 -0.016770  0.024044 -0.002246 -0.002156  0.000555 -0.025072
                                -0.000914 -0.003133  0.002520

   4.1   0    -0.0025   -4.0680  0.014595 -0.143748 -0.011242 -0.237338 -0.567694  0.022697 -0.174072 -0.001291 -0.000941 -0.003270
                                -0.007444 -0.001335  0.000435  0.622009 -0.103103  0.434975  0.003702  0.002957  0.007950  0.038081
                                 0.001216 -0.000651  0.001681

   5.1   0     0.3804   -1.9065  0.045492  0.154672 -0.018748 -0.527612  0.169688  0.033499 -0.179866  0.000684  0.000062  0.000202
                                 0.035282  0.001284  0.001744 -0.535842 -1.065986  1.665811 -0.000516  0.012816  0.017842 -0.111565
                                -0.002023 -0.005546  0.006127

   6.1   0     0.6824   -2.2474  0.026051  0.190159 -0.006951 -0.057988 -0.365142 -0.217348  0.663616 -0.002011  0.003642  0.068654
                                 0.029611  0.000529 -0.000691  0.098469 -0.064868 -0.213310 -0.070570  0.035865  0.770920 -0.357745
                                 0.002283  0.009147 -0.013392

   7.1   0     0.8431   -2.1513  0.200874  1.147777 -0.063574 -0.868625  0.011586 -0.182763  0.672137 -0.000556  0.010607 -0.042627
                                -0.020415 -0.004600 -0.007381 -0.170636 -0.057564  0.066435 -0.014228 -0.082630  0.237758  0.940188
                                 0.000057 -0.004440  0.012820

   8.1   0     0.9414   -2.4653 -0.014535 -0.009399  0.006131  0.150891  0.580407  0.399490 -1.204659  0.000331  0.002737  0.072027
                                 0.018828  0.000577 -0.004819 -0.081110  0.456150 -0.159862 -0.047840  0.011279  0.640797  0.001728
                                 0.002590 -0.024860  0.036529

   9.1   0     1.4470   -1.9906 -0.507466 -2.217257  0.124258  2.982239 -0.062034 -0.175794  0.818017  0.000765  0.000692 -0.119706
                                 0.366321 -0.000567  0.003208 -0.334447  0.031159 -0.449889 -0.019134 -0.045501  0.374432  0.772326
                                -0.028050  0.003997 -0.010393

                                   1 2px     1 2px     1 2px     1 3d1+    1 3d1+    1 4f1+    1 4f3+    2 2px     2 2px     2 3d1+ 
                                   2 3d2- 

   1.2   2    -0.5051   -7.3303  0.982106 -0.018389  0.042699  0.002032  0.007381  0.002068 -0.003371 -0.000150  0.019010 -0.001634
                                -0.002210

   2.2   0     0.6865   -2.5174 -0.484568 -0.259426  0.797927 -0.001727  0.043914  0.000134 -0.000426 -0.062956  0.712671  0.006437
                                 0.006601

   3.2   0     0.9434   -1.9780  0.450621  0.375879 -1.246017  0.000018  0.082638  0.002241 -0.004072 -0.069584  0.827831  0.005750
                                 0.004697

   4.2   0     1.7938   -1.8379 -0.066083  0.004937  0.109438 -0.014680  0.995901  0.005159  0.000160 -0.006596 -0.220562 -0.042527
                                -0.092966

   5.2   0     3.4011    3.6787  0.011696 -0.018376  0.018996 -0.004779 -0.012352  0.012259  0.020259 -0.013464  0.001051  0.861915
                                -0.506045

   6.2   0     3.4867    3.5473  0.062009 -0.120276  0.155546  0.042348  0.155661 -0.024627  0.066393 -0.176528  0.019067  0.499497
                                 0.851877

   7.2   0     3.8728    4.4701 -0.448821  0.368372  0.250605  0.021146  0.094727 -0.012865  0.039275  1.249413 -0.747512  0.089909
                                 0.127582

                                   1 2py     1 2py     1 2py     1 3d1-    1 3d1-    1 4f1-    1 4f3-    2 1s      2 1s      2 1s   
                                   2 2py     2 2pz     2 2py     2 2pz     2 3d1-    2 3d0     2 3d2+ 

   1.3   2    -0.4648   -5.6948  0.648006  0.007027  0.050016  0.003885  0.020925  0.001095 -0.002973  0.555107 -0.013036  0.024021
                                -0.002677 -0.002440 -0.020549 -0.025050  0.004801  0.001167 -0.002421

   2.3   0     0.0389   -4.0487 -0.623709  0.033646 -0.243801  0.001000  0.005373  0.000609  0.001657  0.642535 -0.105945  0.566827
                                 0.006420  0.003630  0.016669  0.031152  0.002130 -0.000489 -0.001794

   3.3   0     0.3880   -1.7664  0.153885  0.019400 -0.193880 -0.001037 -0.042365 -0.001046 -0.000093 -0.442704 -1.195859  1.982787
                                 0.001093  0.009437  0.034166 -0.071935  0.006644  0.001884 -0.003423

   4.3   0     0.7731   -2.0022  0.380110  0.254330 -0.799839  0.005293  0.019765  0.003321  0.000998 -0.205163  0.102501  0.466091
                                 0.046628 -0.052295 -0.589144  0.635830  0.030078  0.010235 -0.008862

   5.3   0     0.9632   -2.1655  0.554066  0.318513 -0.898345 -0.006398  0.000297  0.000103 -0.005512 -0.150726  0.545680 -0.264775
                                -0.048034  0.009988  0.787026 -0.040880  0.037637 -0.001963 -0.031788

   6.3   0     1.0437   -1.4281  0.123151  0.402919 -1.582658  0.020949  0.104628 -0.004803  0.002322 -0.013772  0.110957  0.826933
                                 0.041098  0.078545 -0.664781 -1.065746  0.021594 -0.011335 -0.017874

   7.3   0     2.0711   -0.6511 -0.239480 -0.044649  0.841626 -0.001236  0.951168  0.004315  0.001948 -2.314987  1.466076  0.294078
                                -0.087659 -0.072207  0.581767  0.479877  0.133394 -0.007198 -0.084699

                                   1 3d2-    1 3d2-    1 4f2-    2 2px     2 2px     2 3d2-    2 3d1+ 

   1.4   0     0.7534   -1.4870 -0.000591  0.091580  0.004143 -0.092627  1.038437  0.003453  0.000629

   2.4   0     1.8005   -1.7848 -0.014283  0.993285  0.004279 -0.007708 -0.245362 -0.084921 -0.088280

   3.4   0     3.4011    3.6769  0.000522  0.009112 -0.018631 -0.004470 -0.001226  0.735287 -0.677300

   4.4   0     3.4627    3.4900  0.051469  0.198612 -0.081185 -0.077248 -0.000032  0.665994  0.727304

   5.4   0     3.8484    4.5062  0.019159  0.101723 -0.036453  1.266322 -0.726364  0.043143  0.042005

   6.4   0     5.6190    4.5395  0.068759 -0.004356  0.996234  0.074586 -0.094831  0.097371  0.066668

 HOMO      3.1    -0.449321 =     -12.2266eV
 LUMO      4.1    -0.002454 =      -0.0668eV
 LUMO-HOMO         0.446867 =      12.1599eV


 **********************************************************************************************************************************
 DATASETS  * FILE   NREC   LENGTH (MB)   RECORD NAMES
              1      18        6.10       500      610      700      900      950      970     1000      129      960     1100   
                                          VAR    BASINP    GEOM    SYMINP    ZMAT    AOBASIS   BASIS     P2S    ABASIS      S 
                                         1400     1410     1200     1210     1080     1600     1650     1700   
                                           T        V       H0       H01     AOSYM     SMH    MOLCAS    OPER   

              2       4        0.33       700     1000      520     2100   
                                         GEOM     BASIS   MCVARS     RHF  

 PROGRAMS   *        TOTAL       RHF       INT
 CPU TIMES  *         0.25      0.08      0.06
 REAL TIME  *         2.90 SEC
 DISK USED  *        77.26 MB      
 SF USED    *         0.00 MB      
 GA USED    *         0.00 MB       (max)       0.00 MB       (current)
 **********************************************************************************************************************************

1PROGRAM * FCI (Full CI)     Author: P.J. Knowles, 1984

 ***  Initialisation ***
 
 Molecular orbitals read from record     2100.2  Type=RHF/CANONICAL (state 1.1)
 
 Frozen orbitals:              3 (  2  1  0  0  0  0  0  0)
 Active orbitals:              4 (  2  0  2  0  0  0  0  0)
 Active electrons:             4
 Spin quantum number:          0.0
 Orbital pairs:                     6       0       4       0       0       0       0       0
 Strings:                           2       0       4       0       0       0       0       0
                                    2       0       4       0       0       0       0       0
 Determinants:                     20       0      16       0       0       0       0       0

 Load integrals                0.4 sec
 Transform integrals           0.6 sec
 Storage for integrals:             88
 Remaining memory:             8385024

 Core energy:             -71.17829538
 Run Hamiltonian processor DAVIDSON
 Symmetry:                   1
 Trial vector:                  0.00
 Result vector:                 0.00
 Maximum iterations:           90
 Convergence threshold:         0.0000100
 RHS vector:                    0.00
 Hamiltonian shift:             0.0000000
 Output threshold:              0.0500000
 Options:                        0
 Number of roots:             1

 Hamiltonian diagonaliser entered at time      0.94

 Initial configuration generated:
       5      1.0000000    -75.7036753

 It  Tr    CPU  Convergence   Energy       Pop     dE(next)

  1   1    0.9  1.00000000   -75.70367532
                                           0.30 -0.15484123 -0.13375399
  2   1    0.9  0.27725836   -75.77110275
                                           0.35 -0.04110476 -0.02922741
  3   1    0.9  0.25334236   -75.80195826
                                           0.30 -0.00993325 -0.00837114
  4   1    0.9  0.08179771   -75.80615591
                                           0.35 -0.00105540 -0.00098997
  5   1    0.9  0.05367515   -75.80748536
                                           0.40 -0.00031035 -0.00025744
  6   1    0.9  0.03014539   -75.80783482
                                           0.50 -0.00008648 -0.00008028
  7   1    0.9  0.01462482   -75.80793008
                                           0.10 -0.00000641 -0.00000559
  8   1    0.9  0.00356454   -75.80793646
                                           0.50 -0.00000126 -0.00000110
  9   1    0.9  0.00169519   -75.80793771
                                           0.25 -0.00000007 -0.00000005
 10   1    0.9  0.00070467   -75.80793782
                                           0.40 -0.00000001 -0.00000001
 11   1    0.9  0.00018916   -75.80793783
                                           0.35  0.00000000  0.00000000
 12   1    0.9  0.00010417   -75.80793784
                                           0.15  0.00000000  0.00000000
 13   1    0.9  0.00002218   -75.80793784


RESULTS FOR STATE 1.1
=====================

 Correlation energy                    -0.104262514572
 !FCI STATE 1.1 Energy                -75.807937836139
 CI Vector (threshold= 0.500E-01)
      -0.092717229011  1  2  3  4  5  1  2  3  4  5
       0.124244136452  1  2  3  4  5  1  2  3  6  7
       0.124244136452  1  2  3  6  7  1  2  3  4  5
      -0.082798712494  1  2  3  6  7  1  2  3  6  7
       0.907247637176  1  2  3  4  6  1  2  3  4  6
       0.058825698728  1  2  3  4  6  1  2  3  5  6
      -0.177668082811  1  2  3  4  7  1  2  3  4  7
      -0.141918450271  1  2  3  4  7  1  2  3  5  6
       0.058825698728  1  2  3  5  6  1  2  3  4  6
      -0.141918450271  1  2  3  5  6  1  2  3  4  7
      -0.207234892635  1  2  3  5  6  1  2  3  5  6
       0.083964778966  1  2  3  5  7  1  2  3  5  7
 /EOF
 !FCI STATE 1.1 Dipole moment                  NaN            NaN            NaN
 Dipole moment /Debye                          NaN            NaN            NaN


 **********************************************************************************************************************************
 DATASETS  * FILE   NREC   LENGTH (MB)   RECORD NAMES
              1      18        6.10       500      610      700      900      950      970     1000      129      960     1100   
                                          VAR    BASINP    GEOM    SYMINP    ZMAT    AOBASIS   BASIS     P2S    ABASIS      S 
                                         1400     1410     1200     1210     1080     1600     1650     1700   
                                           T        V       H0       H01     AOSYM     SMH    MOLCAS    OPER   

              2       4        0.33       700     1000      520     2100   
                                         GEOM     BASIS   MCVARS     RHF  

 PROGRAMS   *        TOTAL       FCI       RHF       INT
 CPU TIMES  *         0.80      0.55      0.08      0.06
 REAL TIME  *         6.20 SEC
 DISK USED  *        77.26 MB      
 SF USED    *         0.00 MB      
 GA USED    *         0.00 MB       (max)       0.00 MB       (current)
 **********************************************************************************************************************************

1PROGRAM * FCI (Full CI)     Author: P.J. Knowles, 1984

 ***  Initialisation ***
 
 Molecular orbitals read from record     2100.2  Type=RHF/CANONICAL (state 1.1)
 
 Frozen orbitals:              3 (  2  1  0  0  0  0  0  0)
 Active orbitals:              4 (  2  0  2  0  0  0  0  0)
 Active electrons:             4
 Spin quantum number:          0.0

 Transformed integrals will be written to file FCIDUMP (relative to TMPDIR)
 File format: FCIDUMP.

 Load integrals                0.9 sec
 Transform integrals           1.2 sec
 Storage for integrals:             88
 Remaining memory:             8385024

 Core energy:             -71.17829538
 Run Hamiltonian processor DUMP    
 Symmetry:                   1
 Trial vector:                  0.00
 Result vector:                 0.00
 Maximum iterations:           90
 Convergence threshold:         0.0000100
 RHS vector:                    0.00
 Hamiltonian shift:             0.0000000
 Output threshold:              0.0500000
 Options:                        0
 Number of roots:             1


 **********************************************************************************************************************************
 DATASETS  * FILE   NREC   LENGTH (MB)   RECORD NAMES
              1      18        6.10       500      610      700      900      950      970     1000      129      960     1100   
                                          VAR    BASINP    GEOM    SYMINP    ZMAT    AOBASIS   BASIS     P2S    ABASIS      S 
                                         1400     1410     1200     1210     1080     1600     1650     1700   
                                           T        V       H0       H01     AOSYM     SMH    MOLCAS    OPER   

              2       4        0.33       700     1000      520     2100   
                                         GEOM     BASIS   MCVARS     RHF  

 PROGRAMS   *        TOTAL       FCI       FCI       RHF       INT
 CPU TIMES  *         1.35      0.55      0.55      0.08      0.06
 REAL TIME  *         7.94 SEC
 DISK USED  *        77.26 MB      
 SF USED    *         0.00 MB      
 GA USED    *         0.00 MB       (max)       0.00 MB       (current)
 **********************************************************************************************************************************

        FCI             RHF-SCF 
    -75.80793784    -75.70367532
 **********************************************************************************************************************************
 Variable memory released
