 &FCI NORB=  4,NELEC=  4,MS2= 0,
  ORBSYM=1,1,3,3,
  ISYM=1,
 /
  0.7493195778221508E+00   1   1   1   1
 -0.2864306268362500E-01   2   1   1   1
  0.9439867834936512E-02   2   1   2   1
  0.2951180251946526E+00   2   2   1   1
  0.3496343337555663E-02   2   2   2   1
  0.2619717358882994E+00   2   2   2   2
  0.6304348568261564E+00   3   3   1   1
 -0.2162532529415467E-01   3   3   2   1
  0.3108275054870606E+00   3   3   2   2
  0.7083864611305142E+00   3   3   3   3
 -0.8772577798762848E-01   4   3   1   1
  0.8482544220182794E-02   4   3   2   1
 -0.6082502995735956E-02   4   3   2   2
 -0.8966254513793404E-01   4   3   3   3
  0.2625550038953599E-01   4   3   4   3
  0.2689001250045973E+00   4   4   1   1
  0.4733247190329054E-02   4   4   2   1
  0.2492986238632797E+00   4   4   2   2
  0.2888599483215991E+00   4   4   3   3
 -0.2883951223413173E-02   4   4   4   3
  0.2558208096849975E+00   4   4   4   4
  0.3952639497395045E-01   3   1   3   1
  0.1614225315751260E-02   3   2   3   1
  0.1055445882776731E-01   3   2   3   2
 -0.6890575469593561E-02   4   1   3   1
  0.2741366975826243E-02   4   1   3   2
  0.4919659079771052E-02   4   1   4   1
  0.7839421570143560E-02   4   2   3   1
  0.1597551520196872E-01   4   2   3   2
  0.9045649075614219E-02   4   2   4   1
  0.6643553297339191E-01   4   2   4   2
 -0.2566437262313946E+01   1   1   0   0
  0.7350936627242843E-01   2   1   0   0
 -0.1041445472016497E+01   2   2   0   0
 -0.2694991859734702E+01   3   3   0   0
  0.2582191705735193E+00   4   3   0   0
 -0.8734201006104181E+00   4   4   0   0
 -0.6941868487137347E+02   0   0   0   0
