 &FCI NORB=  4,NELEC=  4,MS2= 0, 
   ORBSYM=1,1,1,1,
   ISYM=1,
  /
 +7.4931957782215075e-01   1   1   1   1 
 -2.8643062683625001e-02   1   1   1   2 
 +0.0000000000000000e+00   1   1   1   3 
 +0.0000000000000000e+00   1   1   1   4 
 -2.8643062683625001e-02   1   1   2   1 
 +2.9511802519465258e-01   1   1   2   2 
 +0.0000000000000000e+00   1   1   2   3 
 +0.0000000000000000e+00   1   1   2   4 
 +0.0000000000000000e+00   1   1   3   1 
 +0.0000000000000000e+00   1   1   3   2 
 +6.3043485682615641e-01   1   1   3   3 
 -8.7725777987628484e-02   1   1   3   4 
 +0.0000000000000000e+00   1   1   4   1 
 +0.0000000000000000e+00   1   1   4   2 
 -8.7725777987628484e-02   1   1   4   3 
 +2.6890012500459731e-01   1   1   4   4 
 -2.8643062683625001e-02   1   2   1   1 
 +9.4398678349365116e-03   1   2   1   2 
 +0.0000000000000000e+00   1   2   1   3 
 +0.0000000000000000e+00   1   2   1   4 
 +9.4398678349365116e-03   1   2   2   1 
 +3.4963433375556630e-03   1   2   2   2 
 +0.0000000000000000e+00   1   2   2   3 
 +0.0000000000000000e+00   1   2   2   4 
 +0.0000000000000000e+00   1   2   3   1 
 +0.0000000000000000e+00   1   2   3   2 
 -2.1625325294154670e-02   1   2   3   3 
 +8.4825442201827937e-03   1   2   3   4 
 +0.0000000000000000e+00   1   2   4   1 
 +0.0000000000000000e+00   1   2   4   2 
 +8.4825442201827937e-03   1   2   4   3 
 +4.7332471903290541e-03   1   2   4   4 
 +0.0000000000000000e+00   1   3   1   1 
 +0.0000000000000000e+00   1   3   1   2 
 +3.9526394973950447e-02   1   3   1   3 
 -6.8905754695935614e-03   1   3   1   4 
 +0.0000000000000000e+00   1   3   2   1 
 +0.0000000000000000e+00   1   3   2   2 
 +1.6142253157512599e-03   1   3   2   3 
 +7.8394215701435600e-03   1   3   2   4 
 +3.9526394973950447e-02   1   3   3   1 
 +1.6142253157512599e-03   1   3   3   2 
 +0.0000000000000000e+00   1   3   3   3 
 +0.0000000000000000e+00   1   3   3   4 
 -6.8905754695935614e-03   1   3   4   1 
 +7.8394215701435600e-03   1   3   4   2 
 +0.0000000000000000e+00   1   3   4   3 
 +0.0000000000000000e+00   1   3   4   4 
 +0.0000000000000000e+00   1   4   1   1 
 +0.0000000000000000e+00   1   4   1   2 
 -6.8905754695935614e-03   1   4   1   3 
 +4.9196590797710516e-03   1   4   1   4 
 +0.0000000000000000e+00   1   4   2   1 
 +0.0000000000000000e+00   1   4   2   2 
 +2.7413669758262430e-03   1   4   2   3 
 +9.0456490756142191e-03   1   4   2   4 
 -6.8905754695935614e-03   1   4   3   1 
 +2.7413669758262430e-03   1   4   3   2 
 +0.0000000000000000e+00   1   4   3   3 
 +0.0000000000000000e+00   1   4   3   4 
 +4.9196590797710516e-03   1   4   4   1 
 +9.0456490756142191e-03   1   4   4   2 
 +0.0000000000000000e+00   1   4   4   3 
 +0.0000000000000000e+00   1   4   4   4 
 -2.8643062683625001e-02   2   1   1   1 
 +9.4398678349365116e-03   2   1   1   2 
 +0.0000000000000000e+00   2   1   1   3 
 +0.0000000000000000e+00   2   1   1   4 
 +9.4398678349365116e-03   2   1   2   1 
 +3.4963433375556630e-03   2   1   2   2 
 +0.0000000000000000e+00   2   1   2   3 
 +0.0000000000000000e+00   2   1   2   4 
 +0.0000000000000000e+00   2   1   3   1 
 +0.0000000000000000e+00   2   1   3   2 
 -2.1625325294154670e-02   2   1   3   3 
 +8.4825442201827937e-03   2   1   3   4 
 +0.0000000000000000e+00   2   1   4   1 
 +0.0000000000000000e+00   2   1   4   2 
 +8.4825442201827937e-03   2   1   4   3 
 +4.7332471903290541e-03   2   1   4   4 
 +2.9511802519465258e-01   2   2   1   1 
 +3.4963433375556630e-03   2   2   1   2 
 +0.0000000000000000e+00   2   2   1   3 
 +0.0000000000000000e+00   2   2   1   4 
 +3.4963433375556630e-03   2   2   2   1 
 +2.6197173588829942e-01   2   2   2   2 
 +0.0000000000000000e+00   2   2   2   3 
 +0.0000000000000000e+00   2   2   2   4 
 +0.0000000000000000e+00   2   2   3   1 
 +0.0000000000000000e+00   2   2   3   2 
 +3.1082750548706062e-01   2   2   3   3 
 -6.0825029957359564e-03   2   2   3   4 
 +0.0000000000000000e+00   2   2   4   1 
 +0.0000000000000000e+00   2   2   4   2 
 -6.0825029957359564e-03   2   2   4   3 
 +2.4929862386327969e-01   2   2   4   4 
 +0.0000000000000000e+00   2   3   1   1 
 +0.0000000000000000e+00   2   3   1   2 
 +1.6142253157512599e-03   2   3   1   3 
 +2.7413669758262430e-03   2   3   1   4 
 +0.0000000000000000e+00   2   3   2   1 
 +0.0000000000000000e+00   2   3   2   2 
 +1.0554458827767310e-02   2   3   2   3 
 +1.5975515201968719e-02   2   3   2   4 
 +1.6142253157512599e-03   2   3   3   1 
 +1.0554458827767310e-02   2   3   3   2 
 +0.0000000000000000e+00   2   3   3   3 
 +0.0000000000000000e+00   2   3   3   4 
 +2.7413669758262430e-03   2   3   4   1 
 +1.5975515201968719e-02   2   3   4   2 
 +0.0000000000000000e+00   2   3   4   3 
 +0.0000000000000000e+00   2   3   4   4 
 +0.0000000000000000e+00   2   4   1   1 
 +0.0000000000000000e+00   2   4   1   2 
 +7.8394215701435600e-03   2   4   1   3 
 +9.0456490756142191e-03   2   4   1   4 
 +0.0000000000000000e+00   2   4   2   1 
 +0.0000000000000000e+00   2   4   2   2 
 +1.5975515201968719e-02   2   4   2   3 
 +6.6435532973391914e-02   2   4   2   4 
 +7.8394215701435600e-03   2   4   3   1 
 +1.5975515201968719e-02   2   4   3   2 
 +0.0000000000000000e+00   2   4   3   3 
 +0.0000000000000000e+00   2   4   3   4 
 +9.0456490756142191e-03   2   4   4   1 
 +6.6435532973391914e-02   2   4   4   2 
 +0.0000000000000000e+00   2   4   4   3 
 +0.0000000000000000e+00   2   4   4   4 
 +0.0000000000000000e+00   3   1   1   1 
 +0.0000000000000000e+00   3   1   1   2 
 +3.9526394973950447e-02   3   1   1   3 
 -6.8905754695935614e-03   3   1   1   4 
 +0.0000000000000000e+00   3   1   2   1 
 +0.0000000000000000e+00   3   1   2   2 
 +1.6142253157512599e-03   3   1   2   3 
 +7.8394215701435600e-03   3   1   2   4 
 +3.9526394973950447e-02   3   1   3   1 
 +1.6142253157512599e-03   3   1   3   2 
 +0.0000000000000000e+00   3   1   3   3 
 +0.0000000000000000e+00   3   1   3   4 
 -6.8905754695935614e-03   3   1   4   1 
 +7.8394215701435600e-03   3   1   4   2 
 +0.0000000000000000e+00   3   1   4   3 
 +0.0000000000000000e+00   3   1   4   4 
 +0.0000000000000000e+00   3   2   1   1 
 +0.0000000000000000e+00   3   2   1   2 
 +1.6142253157512599e-03   3   2   1   3 
 +2.7413669758262430e-03   3   2   1   4 
 +0.0000000000000000e+00   3   2   2   1 
 +0.0000000000000000e+00   3   2   2   2 
 +1.0554458827767310e-02   3   2   2   3 
 +1.5975515201968719e-02   3   2   2   4 
 +1.6142253157512599e-03   3   2   3   1 
 +1.0554458827767310e-02   3   2   3   2 
 +0.0000000000000000e+00   3   2   3   3 
 +0.0000000000000000e+00   3   2   3   4 
 +2.7413669758262430e-03   3   2   4   1 
 +1.5975515201968719e-02   3   2   4   2 
 +0.0000000000000000e+00   3   2   4   3 
 +0.0000000000000000e+00   3   2   4   4 
 +6.3043485682615641e-01   3   3   1   1 
 -2.1625325294154670e-02   3   3   1   2 
 +0.0000000000000000e+00   3   3   1   3 
 +0.0000000000000000e+00   3   3   1   4 
 -2.1625325294154670e-02   3   3   2   1 
 +3.1082750548706062e-01   3   3   2   2 
 +0.0000000000000000e+00   3   3   2   3 
 +0.0000000000000000e+00   3   3   2   4 
 +0.0000000000000000e+00   3   3   3   1 
 +0.0000000000000000e+00   3   3   3   2 
 +7.0838646113051418e-01   3   3   3   3 
 -8.9662545137934035e-02   3   3   3   4 
 +0.0000000000000000e+00   3   3   4   1 
 +0.0000000000000000e+00   3   3   4   2 
 -8.9662545137934035e-02   3   3   4   3 
 +2.8885994832159911e-01   3   3   4   4 
 -8.7725777987628484e-02   3   4   1   1 
 +8.4825442201827937e-03   3   4   1   2 
 +0.0000000000000000e+00   3   4   1   3 
 +0.0000000000000000e+00   3   4   1   4 
 +8.4825442201827937e-03   3   4   2   1 
 -6.0825029957359564e-03   3   4   2   2 
 +0.0000000000000000e+00   3   4   2   3 
 +0.0000000000000000e+00   3   4   2   4 
 +0.0000000000000000e+00   3   4   3   1 
 +0.0000000000000000e+00   3   4   3   2 
 -8.9662545137934035e-02   3   4   3   3 
 +2.6255500389535991e-02   3   4   3   4 
 +0.0000000000000000e+00   3   4   4   1 
 +0.0000000000000000e+00   3   4   4   2 
 +2.6255500389535991e-02   3   4   4   3 
 -2.8839512234131730e-03   3   4   4   4 
 +0.0000000000000000e+00   4   1   1   1 
 +0.0000000000000000e+00   4   1   1   2 
 -6.8905754695935614e-03   4   1   1   3 
 +4.9196590797710516e-03   4   1   1   4 
 +0.0000000000000000e+00   4   1   2   1 
 +0.0000000000000000e+00   4   1   2   2 
 +2.7413669758262430e-03   4   1   2   3 
 +9.0456490756142191e-03   4   1   2   4 
 -6.8905754695935614e-03   4   1   3   1 
 +2.7413669758262430e-03   4   1   3   2 
 +0.0000000000000000e+00   4   1   3   3 
 +0.0000000000000000e+00   4   1   3   4 
 +4.9196590797710516e-03   4   1   4   1 
 +9.0456490756142191e-03   4   1   4   2 
 +0.0000000000000000e+00   4   1   4   3 
 +0.0000000000000000e+00   4   1   4   4 
 +0.0000000000000000e+00   4   2   1   1 
 +0.0000000000000000e+00   4   2   1   2 
 +7.8394215701435600e-03   4   2   1   3 
 +9.0456490756142191e-03   4   2   1   4 
 +0.0000000000000000e+00   4   2   2   1 
 +0.0000000000000000e+00   4   2   2   2 
 +1.5975515201968719e-02   4   2   2   3 
 +6.6435532973391914e-02   4   2   2   4 
 +7.8394215701435600e-03   4   2   3   1 
 +1.5975515201968719e-02   4   2   3   2 
 +0.0000000000000000e+00   4   2   3   3 
 +0.0000000000000000e+00   4   2   3   4 
 +9.0456490756142191e-03   4   2   4   1 
 +6.6435532973391914e-02   4   2   4   2 
 +0.0000000000000000e+00   4   2   4   3 
 +0.0000000000000000e+00   4   2   4   4 
 -8.7725777987628484e-02   4   3   1   1 
 +8.4825442201827937e-03   4   3   1   2 
 +0.0000000000000000e+00   4   3   1   3 
 +0.0000000000000000e+00   4   3   1   4 
 +8.4825442201827937e-03   4   3   2   1 
 -6.0825029957359564e-03   4   3   2   2 
 +0.0000000000000000e+00   4   3   2   3 
 +0.0000000000000000e+00   4   3   2   4 
 +0.0000000000000000e+00   4   3   3   1 
 +0.0000000000000000e+00   4   3   3   2 
 -8.9662545137934035e-02   4   3   3   3 
 +2.6255500389535991e-02   4   3   3   4 
 +0.0000000000000000e+00   4   3   4   1 
 +0.0000000000000000e+00   4   3   4   2 
 +2.6255500389535991e-02   4   3   4   3 
 -2.8839512234131730e-03   4   3   4   4 
 +2.6890012500459731e-01   4   4   1   1 
 +4.7332471903290541e-03   4   4   1   2 
 +0.0000000000000000e+00   4   4   1   3 
 +0.0000000000000000e+00   4   4   1   4 
 +4.7332471903290541e-03   4   4   2   1 
 +2.4929862386327969e-01   4   4   2   2 
 +0.0000000000000000e+00   4   4   2   3 
 +0.0000000000000000e+00   4   4   2   4 
 +0.0000000000000000e+00   4   4   3   1 
 +0.0000000000000000e+00   4   4   3   2 
 +2.8885994832159911e-01   4   4   3   3 
 -2.8839512234131730e-03   4   4   3   4 
 +0.0000000000000000e+00   4   4   4   1 
 +0.0000000000000000e+00   4   4   4   2 
 -2.8839512234131730e-03   4   4   4   3 
 +2.5582080968499749e-01   4   4   4   4 
 -2.5664372623139462e+00   1   1   0   0 
 +7.3509366272428434e-02   1   2   0   0 
 +0.0000000000000000e+00   1   3   0   0 
 +0.0000000000000000e+00   1   4   0   0 
 +7.3509366272428434e-02   2   1   0   0 
 -1.0414454720164970e+00   2   2   0   0 
 +0.0000000000000000e+00   2   3   0   0 
 +0.0000000000000000e+00   2   4   0   0 
 +0.0000000000000000e+00   3   1   0   0 
 +0.0000000000000000e+00   3   2   0   0 
 -2.6949918597347020e+00   3   3   0   0 
 +2.5821917057351929e-01   3   4   0   0 
 +0.0000000000000000e+00   4   1   0   0 
 +0.0000000000000000e+00   4   2   0   0 
 +2.5821917057351929e-01   4   3   0   0 
 -8.7342010061041808e-01   4   4   0   0 
 -6.9418684871373472e+01   0   0   0   0 
