
 Primary working directories    : /scratch/veis/Molpro_96361
 Secondary working directories  : /scratch/veis/Molpro_96361
 Wavefunction directory         : /home/veis/zkousky/h2o_disoc/r_0.9/
 Main file repository           : /scratch/veis/Molpro_96361/

 SHA1      : 2c68d29c09da70e1723824271fadde4bcd5f07a0
 ARCHNAME  : Linux/x86_64
 FC        : /usr/local/programs/common/intel/compiler/2011.5.220/composerxe-2011.5.220/bin/intel64/ifort
 FCVERSION : 12.0.5
 BLASLIB   : -L/usr/local/programs/common/intel/compiler/2011.5.220/composerxe-2011.5.220/mkl/lib/intel64 -lmkl_intel_ilp64 -lmkl_sequential -lmkl_core
 id        : jhinst

 Nodes     nprocs
 b17          7
 Number of processes for MPI-2 version of Molpro:   nprocs(total)=    8   nprocs(compute)=    7   nprocs(helper)=    1
 ga_uses_ma=false, calling ma_init with nominal heap.
 GA-space will be limited to   8.0 MW (determined by -G option)

 Using customized tuning parameters: mindgm=12; mindgv=20; mindgc=4; mindgr=1; noblas=0; minvec=7
 default implementation of scratch files=sf  

 ***,h2o
 memory,500m
 
 r=0.9584*0.9
 a=104.45
 
                                                                                 !symmetry,nosym
 geometry={angstrom
   O;
   H,1,r;
   H,1,r,2,a;}
 
 basis=cc-pVTZ
 spherical
 
 {rhf
 shift,-1.0,-0.5
 wf,10,1,0
 orbprint,6}
 
 {fci
 wf,10,1,0
 core,2,1,0,0
 occ,4,1,2,0
                                                                                 !state,4
                                                                                 !dump
 }
 
 {fci
 wf,10,1,0
 core,2,1,0,0
 occ,4,1,2,0
 dump
 }
 
                                                                                 !put,molden,h2o.molden;
 

 Variables initialized (766), CPU time= 0.00 sec
 Commands  initialized (545), CPU time= 0.00 sec, 513 directives.
 Default parameters read. Elapsed time= 0.07 sec

 Checking input...
 Passed
1


                                         ***  PROGRAM SYSTEM MOLPRO  ***
                         Copyright, University College Cardiff Consultants Limited, 2008

                                    Version 2012.1 linked 30 Oct 2012 00:42:05


 **********************************************************************************************************************************
 LABEL *   h2o                                                                           
 Linux-2.6.38.6-client/b17(x86_64) 64 bit mpp version                                    DATE: 26-Sep-16          TIME: 20:19:38  
 **********************************************************************************************************************************

 SHA1:             2c68d29c09da70e1723824271fadde4bcd5f07a0
 **********************************************************************************************************************************
 SETTING R              =         0.86256000                                  
 SETTING A              =       104.45000000                                  

 Variable memory set to    8388608 words,  buffer space   230000 words

 SETTING BASIS          =    CC-PVTZ


 Recomputing integrals since basis changed


 Using spherical harmonics

 Library entry O      S cc-pVTZ              selected for orbital group  1
 Library entry O      P cc-pVTZ              selected for orbital group  1
 Library entry O      D cc-pVTZ              selected for orbital group  1
 Library entry O      F cc-pVTZ              selected for orbital group  1
 Library entry H      S cc-pVTZ              selected for orbital group  2
 Library entry H      P cc-pVTZ              selected for orbital group  2
 Library entry H      D cc-pVTZ              selected for orbital group  2

1PROGRAM * SEWARD (Integral evaluation for generally contracted gaussian basis sets)     Author: Roland Lindh, 1990

 Geometry written to block  1 of record 700

 Orientation using atomic masses  
 Molecule type: Asymmetric top,     Order of principal axis = 2
 Symmetry elements: X,Y
 Rotational constants:     351.7247126   1011.1388047    539.3310663 GHz  (calculated with average atomic masses)

 Point group  C2v 



 ATOMIC COORDINATES

 NR  ATOM    CHARGE       X              Y              Z

   1  O       8.00    0.000000000    0.000000000   -0.111728008
   2  H       1.00    0.000000000    1.288390177    0.886749750
   3  H       1.00    0.000000000   -1.288390177    0.886749750

 Bond lengths in Bohr (Angstrom)

 1-2  1.630002172  1-3  1.630002172
     ( 0.862560000)     ( 0.862560000)

 Bond angles

  2-1-3  104.45000000

 NUCLEAR CHARGE:                   10
 NUMBER OF PRIMITIVE AOS:          81
 NUMBER OF SYMMETRY AOS:           74
 NUMBER OF CONTRACTIONS:           58   (  23A1  +  11B1  +  17B2  +   7A2  )
 NUMBER OF CORE ORBITALS:           1   (   1A1  +   0B1  +   0B2  +   0A2  )
 NUMBER OF VALENCE ORBITALS:        6   (   3A1  +   1B1  +   2B2  +   0A2  )


 NUCLEAR REPULSION ENERGY   10.20401904


 Eigenvalues of metric

         1 0.205E-02 0.392E-02 0.868E-02 0.323E-01 0.727E-01 0.993E-01 0.130E+00 0.240E+00
         2 0.327E-01 0.924E-01 0.184E+00 0.402E+00 0.483E+00 0.633E+00 0.110E+01 0.136E+01
         3 0.394E-02 0.449E-02 0.454E-01 0.509E-01 0.808E-01 0.113E+00 0.243E+00 0.267E+00
         4 0.776E-01 0.273E+00 0.483E+00 0.798E+00 0.118E+01 0.133E+01 0.237E+01


 Contracted 2-electron integrals neglected if value below      1.0D-11
 AO integral compression algorithm  1   Integral accuracy      1.0D-11

     3.670 MB (compressed) written to integral file ( 82.8%)

     Node minimum: 0.524 MB, node maximum: 0.524 MB


 NUMBER OF SORTED TWO-ELECTRON INTEGRALS:      55303.     BUFFER LENGTH:  32768
 NUMBER OF SEGMENTS:   1  SEGMENT LENGTH:      55303      RECORD LENGTH: 524288

 Memory used in sort:       0.61 MW

 SORT1 READ      562034. AND WROTE       51517. INTEGRALS IN      1 RECORDS. CPU TIME:     0.01 SEC, REAL TIME:     0.13 SEC
 SORT2 READ      366996. AND WROTE      396151. INTEGRALS IN     14 RECORDS. CPU TIME:     0.00 SEC, REAL TIME:     0.01 SEC

 Node minimum:       55303.  Node maximum:       57357. integrals

 OPERATOR DM      FOR CENTER  0  COORDINATES:    0.000000    0.000000    0.000000


 **********************************************************************************************************************************
 DATASETS  * FILE   NREC   LENGTH (MB)   RECORD NAMES
              1      18        6.10       500      610      700      900      950      970     1000      129      960     1100   
                                          VAR    BASINP    GEOM    SYMINP    ZMAT    AOBASIS   BASIS     P2S    ABASIS      S 
                                         1400     1410     1200     1210     1080     1600     1650     1700   
                                           T        V       H0       H01     AOSYM     SMH    MOLCAS    OPER   

 PROGRAMS   *        TOTAL       INT
 CPU TIMES  *         0.28      0.18
 REAL TIME  *         2.58 SEC
 DISK USED  *        31.67 MB      
 GA USED    *         0.00 MB       (max)       0.00 MB       (current)
 **********************************************************************************************************************************

1PROGRAM * RHF-SCF (CLOSED SHELL)       Authors: W. Meyer, H.-J. Werner


 NUMBER OF ELECTRONS:       5+    5-    SPACE SYMMETRY=1    SPIN SYMMETRY: Singlet 
 CONVERGENCE THRESHOLDS:    1.00E-05 (Density)    1.00E-07 (Energy)
 MAX. NUMBER OF ITERATIONS:       60
 INTERPOLATION TYPE:            DIIS
 INTERPOLATION STEPS:              2 (START)      1 (STEP)
 LEVEL SHIFTS:                 -1.00 (CLOSED) -0.50 (OPEN) 



 Orbital guess generated from atomic densities. Full valence occupancy:    4   1   2   0

 Molecular orbital dump at record        2100.2

 ITERATION    DDIFF          GRAD             ENERGY        2-EL.EN.            DIPOLE MOMENTS         DIIS   ORB.
    1      0.000D+00      0.000D+00       -76.00434497     79.248742    0.00000    0.00000    1.02434    0    start
    2      0.000D+00      0.241D-01       -76.03823042     77.226293    0.00000    0.00000    0.83061    1    diag
    3      0.255D-01      0.586D-02       -76.04040107     77.268770    0.00000    0.00000    0.79243    2    diag
    4      0.553D-02      0.238D-02       -76.04105865     77.240707    0.00000    0.00000    0.76890    3    diag
    5      0.327D-02      0.752D-03       -76.04114357     77.240692    0.00000    0.00000    0.76501    4    diag
    6      0.125D-02      0.198D-03       -76.04115000     77.241069    0.00000    0.00000    0.76510    5    diag
    7      0.425D-03      0.505D-04       -76.04115041     77.240896    0.00000    0.00000    0.76529    6    diag
    8      0.114D-03      0.119D-04       -76.04115044     77.240748    0.00000    0.00000    0.76529    7    diag
    9      0.266D-04      0.358D-05       -76.04115044     77.240758    0.00000    0.00000    0.76528    8    diag
   10      0.991D-05      0.109D-05       -76.04115044     77.240755    0.00000    0.00000    0.76527    0    orth

 Final occupancy:   3   1   1   0

 !RHF STATE 1.1 Energy                -76.041150439161
 Nuclear energy                        10.20401904
 One-electron energy                 -124.86554684
 Two-electron energy                   38.62037736
 Virial quotient                       -0.99462418
 !RHF STATE 1.1 Dipole moment           0.00000000     0.00000000     0.76527278
 Dipole moment /Debye                   0.00000000     0.00000000     1.94500199

 ELECTRON ORBITALS
 =================


   Orb  Occ    Energy  Couls-En    Coefficients

                                   1 1s      1 1s      1 1s      1 1s      1 2pz     1 2pz     1 2pz     1 3d0     1 3d2+    1 3d0  
                                   1 3d2+    1 4f0     1 4f2+    2 1s      2 1s      2 1s      2 2pz     2 2py     2 2pz     2 2py  
                                   2 3d0     2 3d2+    2 3d1- 

   1.1   2   -20.5368  -53.6855  0.999452  0.000164  0.001224 -0.000481  0.005107 -0.003520 -0.001695  0.000038 -0.000208 -0.000203
                                 0.000330 -0.000075 -0.000029  0.003091 -0.001122 -0.001535  0.000182  0.000029 -0.000114 -0.000246
                                -0.000118  0.000236 -0.000561

   2.1   2    -1.4010   -9.4287 -0.013740  0.839936 -0.006028 -0.062015  0.151431 -0.000925 -0.037138  0.001504 -0.004573  0.002319
                                -0.007401 -0.000995 -0.002925  0.635935 -0.215704 -0.237502 -0.012505 -0.019219 -0.004794 -0.012804
                                -0.000635 -0.003525  0.003672

   3.1   2    -0.5958   -7.6850 -0.004972 -0.330416 -0.001330 -0.170520  0.823229 -0.020800 -0.006014  0.006510 -0.002901  0.017154
                                -0.005662  0.000587 -0.003008  0.510114 -0.077556 -0.177869  0.002838 -0.016900  0.021830 -0.027155
                                -0.004376 -0.005754  0.001098

   4.1   0     0.1505   -2.7612  0.013905 -0.222564 -0.013944 -1.811113 -0.148392 -0.119553 -0.436198 -0.000838 -0.001668 -0.003188
                                 0.057234  0.004622  0.006728  0.108939  0.534763  1.330607  0.000189  0.010360 -0.199018 -0.258812
                                 0.007007 -0.008713  0.024612

   5.1   0     0.6372   -2.7058 -0.084174 -0.427653  0.055554 -4.944743  0.317819 -0.261356 -2.840553  0.009389 -0.027779 -0.055069
                                 0.235815  0.013393  0.029057  0.293199  4.379547  0.010082 -0.053789 -0.069071 -0.667358 -0.834953
                                 0.015844 -0.046146  0.063307

   6.1   0     0.6775   -3.1358  0.027876 -0.114607  0.001960  2.479803 -0.546879  0.097997  1.457676 -0.020543 -0.003561  0.103543
                                -0.075484  0.011029  0.009222  0.382222 -0.847151 -1.119796 -0.021619 -0.027955  0.306603  1.147004
                                 0.037317  0.031458 -0.024572

   7.1   0     0.8188   -2.5481 -0.004830 -0.221754  0.012508  0.536452 -0.189606 -0.076981 -0.975342  0.035756  0.013222 -0.224895
                                -0.173896 -0.026887 -0.001350 -0.053996  0.734954 -0.533312 -0.024060  0.004250  1.307233 -0.381754
                                -0.098331 -0.048243 -0.066067

   8.1   0     1.0806   -2.8160 -0.118770 -0.915445  0.000816  8.034855  0.215279  1.073888  1.686490 -0.000495 -0.002982 -0.044715
                                -0.261137 -0.036301 -0.063021 -0.152005 -4.693298 -0.838654  0.144654  0.129590  0.925765  1.634247
                                -0.043580  0.110223 -0.181402

   9.1   0     1.7163   -1.8426  0.320548  1.561397  0.055858  0.598032  0.456735  0.156263 -0.128903  0.001071  0.018919  0.020039
                                 0.593246  0.051931  0.097942 -0.512533 -0.414588 -0.194544 -0.218344 -0.269989  0.942796  1.318365
                                 0.024656 -0.008933  0.086303

                                   1 2px     1 2px     1 2px     1 3d1+    1 3d1+    1 4f1+    1 4f3+    2 2px     2 2px     2 3d1+ 
                                   2 3d2- 

   1.2   2    -0.5135   -7.6501  0.918397 -0.009376  0.060209  0.006065  0.018258  0.001570 -0.004050  0.018268  0.046329 -0.004388
                                -0.006441

   2.2   0     0.7794   -3.4138 -0.638454 -0.399120  1.627068 -0.015218  0.069107  0.005611 -0.011792 -0.000804 -0.308785  0.019664
                                 0.040125

   3.2   0     0.9744   -2.3264 -0.201758 -0.248348 -0.940624  0.024845 -0.047194 -0.009279  0.021963 -0.091488  1.517593 -0.016819
                                -0.080771

   4.2   0     2.0733   -1.4658  0.024247  0.193177  0.857757 -0.014227  1.273485  0.019418 -0.025561  0.027123 -1.160748  0.142387
                                 0.035512

   5.2   0     3.3534    1.5257  0.106078 -0.171519 -0.285125 -0.011866 -0.527580  0.056704  0.073172 -0.260275  0.433341  0.667282
                                -0.663459

   6.2   0     3.8625    1.3894 -1.743956  1.699737  0.687484  0.054198 -0.091857  0.095292 -0.101605  0.953399 -0.809643  0.355072
                                 0.047471

   7.2   0     4.0652    1.4436  2.100591 -1.261398  0.046364 -0.008766  0.446915  0.083629 -0.165096  0.356826 -0.834607  0.635258
                                 0.699043

                                   1 2py     1 2py     1 2py     1 3d1-    1 3d1-    1 4f1-    1 4f3-    2 1s      2 1s      2 1s   
                                   2 2py     2 2pz     2 2py     2 2pz     2 3d1-    2 3d0     2 3d2+ 

   1.3   2    -0.7653   -7.7960  0.757443 -0.043493 -0.120540  0.013608  0.017204 -0.000395 -0.002846  0.937947 -0.140867 -0.290503
                                -0.019303 -0.024287 -0.033900 -0.038412  0.011344  0.003258 -0.006093

   2.3   0     0.2109   -2.3785 -0.307559 -0.045877 -0.794701  0.002131 -0.057449 -0.000634  0.001217  0.023906  0.313296  2.802945
                                 0.017059  0.017973 -0.234805 -0.192591  0.012211 -0.002203 -0.014483

   3.3   0     0.5815   -2.9313 -0.169572 -0.312583 -1.872973  0.023696 -0.237765 -0.023945  0.019284  0.688497  2.611379 -0.545633
                                -0.106486 -0.063795 -0.264273 -0.140897  0.056338 -0.012502 -0.034744

   4.3   0     0.8149   -2.7894 -0.718190  0.501608  3.237149 -0.007651  0.403520  0.022324 -0.011284  0.026786 -2.759517 -2.459944
                                 0.071693  0.046246  1.462400  1.243506 -0.115458  0.002305  0.090331

   5.3   0     1.2528   -1.3176  0.070928  0.109945  1.687285  0.000905  0.016883 -0.013299 -0.013904  0.049710 -1.071943 -0.111307
                                 0.102606 -0.084133 -1.323971  1.474282 -0.007998 -0.047566 -0.038429

   6.3   0     1.6177   -1.7772  0.561053  1.233049  0.929827  0.016754 -0.174636 -0.016173  0.008310 -0.665418 -2.975098 -0.841208
                                -0.075555 -0.062756  2.448699  1.864126 -0.174950 -0.001664  0.117382

   7.3   0     1.9374   -0.9226 -0.023365 -2.228098 -2.986639 -0.070412 -1.618038 -0.125515  0.081480 -1.700743  8.742561  1.051732
                                -0.361825 -0.324880 -2.846280 -1.905029  0.355935 -0.033084 -0.234990

                                   1 3d2-    1 3d2-    1 4f2-    2 2px     2 2px     2 3d2-    2 3d1+ 

   1.4   0     0.8807   -2.3956  0.031364 -0.098896 -0.025957 -0.070024  1.303805 -0.046201 -0.061123

   2.4   0     2.0965   -1.4411 -0.014441  1.397412  0.058676  0.037631 -1.070274  0.158146  0.059255

   3.4   0     3.6430    2.1035  0.056981  0.200454  0.154149  0.802256 -0.643866 -0.262874  0.687975

   4.4   0     4.0478    3.2471  0.017227 -0.077672  0.182281  0.735104 -0.672448  0.917748 -0.284209

   5.4   0     4.4648    3.5244 -0.142224  1.346460  0.013394 -0.449510 -0.806166  0.904671  1.121388

   6.4   0     6.9562    5.6092  1.081174 -1.068289 -0.607298  0.352040  0.431879 -0.135977 -0.181372

 HOMO      1.2    -0.513502 =     -13.9731eV
 LUMO      4.1     0.150451 =       4.0940eV
 LUMO-HOMO         0.663953 =      18.0671eV


 **********************************************************************************************************************************
 DATASETS  * FILE   NREC   LENGTH (MB)   RECORD NAMES
              1      18        6.10       500      610      700      900      950      970     1000      129      960     1100   
                                          VAR    BASINP    GEOM    SYMINP    ZMAT    AOBASIS   BASIS     P2S    ABASIS      S 
                                         1400     1410     1200     1210     1080     1600     1650     1700   
                                           T        V       H0       H01     AOSYM     SMH    MOLCAS    OPER   

              2       4        0.33       700     1000      520     2100   
                                         GEOM     BASIS   MCVARS     RHF  

 PROGRAMS   *        TOTAL       RHF       INT
 CPU TIMES  *         0.32      0.02      0.18
 REAL TIME  *         3.85 SEC
 DISK USED  *        77.50 MB      
 SF USED    *         0.00 MB      
 GA USED    *         0.00 MB       (max)       0.00 MB       (current)
 **********************************************************************************************************************************

1PROGRAM * FCI (Full CI)     Author: P.J. Knowles, 1984

 ***  Initialisation ***
 
 Molecular orbitals read from record     2100.2  Type=RHF/CANONICAL (state 1.1)
 
 Frozen orbitals:              3 (  2  1  0  0  0  0  0  0)
 Active orbitals:              4 (  2  0  2  0  0  0  0  0)
 Active electrons:             4
 Spin quantum number:          0.0
 Orbital pairs:                     6       0       4       0       0       0       0       0
 Strings:                           2       0       4       0       0       0       0       0
                                    2       0       4       0       0       0       0       0
 Determinants:                     20       0      16       0       0       0       0       0

 Load integrals                0.6 sec
 Transform integrals           0.8 sec
 Storage for integrals:             88
 Remaining memory:             8385024

 Core energy:             -69.41868487
 Run Hamiltonian processor DAVIDSON
 Symmetry:                   1
 Trial vector:                  0.00
 Result vector:                 0.00
 Maximum iterations:           90
 Convergence threshold:         0.0000100
 RHS vector:                    0.00
 Hamiltonian shift:             0.0000000
 Output threshold:              0.0500000
 Options:                        0
 Number of roots:             1

 Hamiltonian diagonaliser entered at time      1.11

 Initial configuration generated:
       5      1.0000000    -76.0411504

 It  Tr    CPU  Convergence   Energy       Pop     dE(next)

  1   1    1.1  1.00000000   -76.04115044
                                           0.25 -0.00068905 -0.00061714
  2   1    1.1  0.01875810   -76.04174966
                                           0.25 -0.00006925 -0.00005806
  3   1    1.1  0.00654252   -76.04180983
                                           0.30 -0.00001571 -0.00001377
  4   1    1.1  0.00425468   -76.04182317
                                           0.15 -0.00000201 -0.00000180
  5   1    1.1  0.00093333   -76.04182505
                                           0.45 -0.00000012 -0.00000011
  6   1    1.1  0.00026987   -76.04182516
                                           0.25 -0.00000001  0.00000000
  7   1    1.1  0.00005056   -76.04182516
                                           0.30  0.00000000  0.00000000
  8   1    1.1  0.00002700   -76.04182516
                                           0.40  0.00000000  0.00000000
  9   1    1.1  0.00000610   -76.04182516


RESULTS FOR STATE 1.1
=====================

 Correlation energy                    -0.000674723291
 !FCI STATE 1.1 Energy                -76.041825162452
 CI Vector (threshold= 0.500E-01)
       0.999788150129  1  2  3  4  6  1  2  3  4  6
 /EOF
 !FCI STATE 1.1 Dipole moment           0.00000000     0.00000000     0.75918199
 Dipole moment /Debye                   0.00000000     0.00000000     1.92952176


 **********************************************************************************************************************************
 DATASETS  * FILE   NREC   LENGTH (MB)   RECORD NAMES
              1      18        6.10       500      610      700      900      950      970     1000      129      960     1100   
                                          VAR    BASINP    GEOM    SYMINP    ZMAT    AOBASIS   BASIS     P2S    ABASIS      S 
                                         1400     1410     1200     1210     1080     1600     1650     1700   
                                           T        V       H0       H01     AOSYM     SMH    MOLCAS    OPER   

              2       4        0.33       700     1000      520     2100   
                                         GEOM     BASIS   MCVARS     RHF  

 PROGRAMS   *        TOTAL       FCI       RHF       INT
 CPU TIMES  *         0.87      0.55      0.02      0.18
 REAL TIME  *         7.33 SEC
 DISK USED  *        77.50 MB      
 SF USED    *         0.00 MB      
 GA USED    *         0.00 MB       (max)       0.00 MB       (current)
 **********************************************************************************************************************************

1PROGRAM * FCI (Full CI)     Author: P.J. Knowles, 1984

 ***  Initialisation ***
 
 Molecular orbitals read from record     2100.2  Type=RHF/CANONICAL (state 1.1)
 
 Frozen orbitals:              3 (  2  1  0  0  0  0  0  0)
 Active orbitals:              4 (  2  0  2  0  0  0  0  0)
 Active electrons:             4
 Spin quantum number:          0.0

 Transformed integrals will be written to file FCIDUMP (relative to TMPDIR)
 File format: FCIDUMP.

 Load integrals                1.1 sec
 Transform integrals           1.3 sec
 Storage for integrals:             88
 Remaining memory:             8385024

 Core energy:             -69.41868487
 Run Hamiltonian processor DUMP    
 Symmetry:                   1
 Trial vector:                  0.00
 Result vector:                 0.00
 Maximum iterations:           90
 Convergence threshold:         0.0000100
 RHS vector:                    0.00
 Hamiltonian shift:             0.0000000
 Output threshold:              0.0500000
 Options:                        0
 Number of roots:             1


 **********************************************************************************************************************************
 DATASETS  * FILE   NREC   LENGTH (MB)   RECORD NAMES
              1      18        6.10       500      610      700      900      950      970     1000      129      960     1100   
                                          VAR    BASINP    GEOM    SYMINP    ZMAT    AOBASIS   BASIS     P2S    ABASIS      S 
                                         1400     1410     1200     1210     1080     1600     1650     1700   
                                           T        V       H0       H01     AOSYM     SMH    MOLCAS    OPER   

              2       4        0.33       700     1000      520     2100   
                                         GEOM     BASIS   MCVARS     RHF  

 PROGRAMS   *        TOTAL       FCI       FCI       RHF       INT
 CPU TIMES  *         1.41      0.53      0.55      0.02      0.18
 REAL TIME  *         9.40 SEC
 DISK USED  *        77.50 MB      
 SF USED    *         0.00 MB      
 GA USED    *         0.00 MB       (max)       0.00 MB       (current)
 **********************************************************************************************************************************

        FCI             RHF-SCF 
    -76.04182516    -76.04115044
 **********************************************************************************************************************************
 Variable memory released
