 &FCI NORB=  4,NELEC=  4,MS2= 0, 
   ORBSYM=1,1,1,1,
   ISYM=1,
  /
 +4.2820350025901882e-01   1   1   1   1 
 -1.2301154984395000e-01   1   1   1   2 
 +0.0000000000000000e+00   1   1   1   3 
 +0.0000000000000000e+00   1   1   1   4 
 -1.2301154984395000e-01   1   1   2   1 
 +3.7266720618388949e-01   1   1   2   2 
 +0.0000000000000000e+00   1   1   2   3 
 +0.0000000000000000e+00   1   1   2   4 
 +0.0000000000000000e+00   1   1   3   1 
 +0.0000000000000000e+00   1   1   3   2 
 +3.9454430439042149e-01   1   1   3   3 
 -1.0531572163683160e-01   1   1   3   4 
 +0.0000000000000000e+00   1   1   4   1 
 +0.0000000000000000e+00   1   1   4   2 
 -1.0531572163683160e-01   1   1   4   3 
 +3.6186484276280062e-01   1   1   4   4 
 -1.2301154984395000e-01   1   2   1   1 
 +1.4597429213309149e-01   1   2   1   2 
 +0.0000000000000000e+00   1   2   1   3 
 +0.0000000000000000e+00   1   2   1   4 
 +1.4597429213309149e-01   1   2   2   1 
 -6.6903965336606475e-02   1   2   2   2 
 +0.0000000000000000e+00   1   2   2   3 
 +0.0000000000000000e+00   1   2   2   4 
 +0.0000000000000000e+00   1   2   3   1 
 +0.0000000000000000e+00   1   2   3   2 
 -9.1169747664704148e-02   1   2   3   3 
 +1.3167147499520690e-01   1   2   3   4 
 +0.0000000000000000e+00   1   2   4   1 
 +0.0000000000000000e+00   1   2   4   2 
 +1.3167147499520690e-01   1   2   4   3 
 -5.5419979929180407e-02   1   2   4   4 
 +0.0000000000000000e+00   1   3   1   1 
 +0.0000000000000000e+00   1   3   1   2 
 +5.1981725586944937e-02   1   3   1   3 
 +2.9413894961598599e-02   1   3   1   4 
 +0.0000000000000000e+00   1   3   2   1 
 +0.0000000000000000e+00   1   3   2   2 
 +3.3100444332052351e-02   1   3   2   3 
 +6.0153950528951651e-02   1   3   2   4 
 +5.1981725586944937e-02   1   3   3   1 
 +3.3100444332052351e-02   1   3   3   2 
 +0.0000000000000000e+00   1   3   3   3 
 +0.0000000000000000e+00   1   3   3   4 
 +2.9413894961598599e-02   1   3   4   1 
 +6.0153950528951651e-02   1   3   4   2 
 +0.0000000000000000e+00   1   3   4   3 
 +0.0000000000000000e+00   1   3   4   4 
 +0.0000000000000000e+00   1   4   1   1 
 +0.0000000000000000e+00   1   4   1   2 
 +2.9413894961598599e-02   1   4   1   3 
 +5.1590289309434080e-02   1   4   1   4 
 +0.0000000000000000e+00   1   4   2   1 
 +0.0000000000000000e+00   1   4   2   2 
 +5.2829275783205017e-02   1   4   2   3 
 +4.8409626940762708e-02   1   4   2   4 
 +2.9413894961598599e-02   1   4   3   1 
 +5.2829275783205017e-02   1   4   3   2 
 +0.0000000000000000e+00   1   4   3   3 
 +0.0000000000000000e+00   1   4   3   4 
 +5.1590289309434080e-02   1   4   4   1 
 +4.8409626940762708e-02   1   4   4   2 
 +0.0000000000000000e+00   1   4   4   3 
 +0.0000000000000000e+00   1   4   4   4 
 -1.2301154984395000e-01   2   1   1   1 
 +1.4597429213309149e-01   2   1   1   2 
 +0.0000000000000000e+00   2   1   1   3 
 +0.0000000000000000e+00   2   1   1   4 
 +1.4597429213309149e-01   2   1   2   1 
 -6.6903965336606475e-02   2   1   2   2 
 +0.0000000000000000e+00   2   1   2   3 
 +0.0000000000000000e+00   2   1   2   4 
 +0.0000000000000000e+00   2   1   3   1 
 +0.0000000000000000e+00   2   1   3   2 
 -9.1169747664704148e-02   2   1   3   3 
 +1.3167147499520690e-01   2   1   3   4 
 +0.0000000000000000e+00   2   1   4   1 
 +0.0000000000000000e+00   2   1   4   2 
 +1.3167147499520690e-01   2   1   4   3 
 -5.5419979929180407e-02   2   1   4   4 
 +3.7266720618388949e-01   2   2   1   1 
 -6.6903965336606475e-02   2   2   1   2 
 +0.0000000000000000e+00   2   2   1   3 
 +0.0000000000000000e+00   2   2   1   4 
 -6.6903965336606475e-02   2   2   2   1 
 +3.4809781221422248e-01   2   2   2   2 
 +0.0000000000000000e+00   2   2   2   3 
 +0.0000000000000000e+00   2   2   2   4 
 +0.0000000000000000e+00   2   2   3   1 
 +0.0000000000000000e+00   2   2   3   2 
 +3.5346770713312969e-01   2   2   3   3 
 -5.3324253719696298e-02   2   2   3   4 
 +0.0000000000000000e+00   2   2   4   1 
 +0.0000000000000000e+00   2   2   4   2 
 -5.3324253719696298e-02   2   2   4   3 
 +3.3908367623218150e-01   2   2   4   4 
 +0.0000000000000000e+00   2   3   1   1 
 +0.0000000000000000e+00   2   3   1   2 
 +3.3100444332052351e-02   2   3   1   3 
 +5.2829275783205017e-02   2   3   1   4 
 +0.0000000000000000e+00   2   3   2   1 
 +0.0000000000000000e+00   2   3   2   2 
 +5.6008956868050727e-02   2   3   2   3 
 +5.1629300341712897e-02   2   3   2   4 
 +3.3100444332052351e-02   2   3   3   1 
 +5.6008956868050727e-02   2   3   3   2 
 +0.0000000000000000e+00   2   3   3   3 
 +0.0000000000000000e+00   2   3   3   4 
 +5.2829275783205017e-02   2   3   4   1 
 +5.1629300341712897e-02   2   3   4   2 
 +0.0000000000000000e+00   2   3   4   3 
 +0.0000000000000000e+00   2   3   4   4 
 +0.0000000000000000e+00   2   4   1   1 
 +0.0000000000000000e+00   2   4   1   2 
 +6.0153950528951651e-02   2   4   1   3 
 +4.8409626940762708e-02   2   4   1   4 
 +0.0000000000000000e+00   2   4   2   1 
 +0.0000000000000000e+00   2   4   2   2 
 +5.1629300341712897e-02   2   4   2   3 
 +8.0304101283783652e-02   2   4   2   4 
 +6.0153950528951651e-02   2   4   3   1 
 +5.1629300341712897e-02   2   4   3   2 
 +0.0000000000000000e+00   2   4   3   3 
 +0.0000000000000000e+00   2   4   3   4 
 +4.8409626940762708e-02   2   4   4   1 
 +8.0304101283783652e-02   2   4   4   2 
 +0.0000000000000000e+00   2   4   4   3 
 +0.0000000000000000e+00   2   4   4   4 
 +0.0000000000000000e+00   3   1   1   1 
 +0.0000000000000000e+00   3   1   1   2 
 +5.1981725586944937e-02   3   1   1   3 
 +2.9413894961598599e-02   3   1   1   4 
 +0.0000000000000000e+00   3   1   2   1 
 +0.0000000000000000e+00   3   1   2   2 
 +3.3100444332052351e-02   3   1   2   3 
 +6.0153950528951651e-02   3   1   2   4 
 +5.1981725586944937e-02   3   1   3   1 
 +3.3100444332052351e-02   3   1   3   2 
 +0.0000000000000000e+00   3   1   3   3 
 +0.0000000000000000e+00   3   1   3   4 
 +2.9413894961598599e-02   3   1   4   1 
 +6.0153950528951651e-02   3   1   4   2 
 +0.0000000000000000e+00   3   1   4   3 
 +0.0000000000000000e+00   3   1   4   4 
 +0.0000000000000000e+00   3   2   1   1 
 +0.0000000000000000e+00   3   2   1   2 
 +3.3100444332052351e-02   3   2   1   3 
 +5.2829275783205017e-02   3   2   1   4 
 +0.0000000000000000e+00   3   2   2   1 
 +0.0000000000000000e+00   3   2   2   2 
 +5.6008956868050727e-02   3   2   2   3 
 +5.1629300341712897e-02   3   2   2   4 
 +3.3100444332052351e-02   3   2   3   1 
 +5.6008956868050727e-02   3   2   3   2 
 +0.0000000000000000e+00   3   2   3   3 
 +0.0000000000000000e+00   3   2   3   4 
 +5.2829275783205017e-02   3   2   4   1 
 +5.1629300341712897e-02   3   2   4   2 
 +0.0000000000000000e+00   3   2   4   3 
 +0.0000000000000000e+00   3   2   4   4 
 +3.9454430439042149e-01   3   3   1   1 
 -9.1169747664704148e-02   3   3   1   2 
 +0.0000000000000000e+00   3   3   1   3 
 +0.0000000000000000e+00   3   3   1   4 
 -9.1169747664704148e-02   3   3   2   1 
 +3.5346770713312969e-01   3   3   2   2 
 +0.0000000000000000e+00   3   3   2   3 
 +0.0000000000000000e+00   3   3   2   4 
 +0.0000000000000000e+00   3   3   3   1 
 +0.0000000000000000e+00   3   3   3   2 
 +4.1123225444902539e-01   3   3   3   3 
 -1.1294478150536109e-01   3   3   3   4 
 +0.0000000000000000e+00   3   3   4   1 
 +0.0000000000000000e+00   3   3   4   2 
 -1.1294478150536109e-01   3   3   4   3 
 +3.7504467966974397e-01   3   3   4   4 
 -1.0531572163683160e-01   3   4   1   1 
 +1.3167147499520690e-01   3   4   1   2 
 +0.0000000000000000e+00   3   4   1   3 
 +0.0000000000000000e+00   3   4   1   4 
 +1.3167147499520690e-01   3   4   2   1 
 -5.3324253719696298e-02   3   4   2   2 
 +0.0000000000000000e+00   3   4   2   3 
 +0.0000000000000000e+00   3   4   2   4 
 +0.0000000000000000e+00   3   4   3   1 
 +0.0000000000000000e+00   3   4   3   2 
 -1.1294478150536109e-01   3   4   3   3 
 +1.5181028918150721e-01   3   4   3   4 
 +0.0000000000000000e+00   3   4   4   1 
 +0.0000000000000000e+00   3   4   4   2 
 +1.5181028918150721e-01   3   4   4   3 
 -7.1828201911617484e-02   3   4   4   4 
 +0.0000000000000000e+00   4   1   1   1 
 +0.0000000000000000e+00   4   1   1   2 
 +2.9413894961598599e-02   4   1   1   3 
 +5.1590289309434080e-02   4   1   1   4 
 +0.0000000000000000e+00   4   1   2   1 
 +0.0000000000000000e+00   4   1   2   2 
 +5.2829275783205017e-02   4   1   2   3 
 +4.8409626940762708e-02   4   1   2   4 
 +2.9413894961598599e-02   4   1   3   1 
 +5.2829275783205017e-02   4   1   3   2 
 +0.0000000000000000e+00   4   1   3   3 
 +0.0000000000000000e+00   4   1   3   4 
 +5.1590289309434080e-02   4   1   4   1 
 +4.8409626940762708e-02   4   1   4   2 
 +0.0000000000000000e+00   4   1   4   3 
 +0.0000000000000000e+00   4   1   4   4 
 +0.0000000000000000e+00   4   2   1   1 
 +0.0000000000000000e+00   4   2   1   2 
 +6.0153950528951651e-02   4   2   1   3 
 +4.8409626940762708e-02   4   2   1   4 
 +0.0000000000000000e+00   4   2   2   1 
 +0.0000000000000000e+00   4   2   2   2 
 +5.1629300341712897e-02   4   2   2   3 
 +8.0304101283783652e-02   4   2   2   4 
 +6.0153950528951651e-02   4   2   3   1 
 +5.1629300341712897e-02   4   2   3   2 
 +0.0000000000000000e+00   4   2   3   3 
 +0.0000000000000000e+00   4   2   3   4 
 +4.8409626940762708e-02   4   2   4   1 
 +8.0304101283783652e-02   4   2   4   2 
 +0.0000000000000000e+00   4   2   4   3 
 +0.0000000000000000e+00   4   2   4   4 
 -1.0531572163683160e-01   4   3   1   1 
 +1.3167147499520690e-01   4   3   1   2 
 +0.0000000000000000e+00   4   3   1   3 
 +0.0000000000000000e+00   4   3   1   4 
 +1.3167147499520690e-01   4   3   2   1 
 -5.3324253719696298e-02   4   3   2   2 
 +0.0000000000000000e+00   4   3   2   3 
 +0.0000000000000000e+00   4   3   2   4 
 +0.0000000000000000e+00   4   3   3   1 
 +0.0000000000000000e+00   4   3   3   2 
 -1.1294478150536109e-01   4   3   3   3 
 +1.5181028918150721e-01   4   3   3   4 
 +0.0000000000000000e+00   4   3   4   1 
 +0.0000000000000000e+00   4   3   4   2 
 +1.5181028918150721e-01   4   3   4   3 
 -7.1828201911617484e-02   4   3   4   4 
 +3.6186484276280062e-01   4   4   1   1 
 -5.5419979929180407e-02   4   4   1   2 
 +0.0000000000000000e+00   4   4   1   3 
 +0.0000000000000000e+00   4   4   1   4 
 -5.5419979929180407e-02   4   4   2   1 
 +3.3908367623218150e-01   4   4   2   2 
 +0.0000000000000000e+00   4   4   2   3 
 +0.0000000000000000e+00   4   4   2   4 
 +0.0000000000000000e+00   4   4   3   1 
 +0.0000000000000000e+00   4   4   3   2 
 +3.7504467966974397e-01   4   4   3   3 
 -7.1828201911617484e-02   4   4   3   4 
 +0.0000000000000000e+00   4   4   4   1 
 +0.0000000000000000e+00   4   4   4   2 
 -7.1828201911617484e-02   4   4   4   3 
 +3.5812499609811071e-01   4   4   4   4 
 -1.5585229468338340e+00   1   1   0   0 
 +3.3845164760707053e-01   1   2   0   0 
 +0.0000000000000000e+00   1   3   0   0 
 +0.0000000000000000e+00   1   4   0   0 
 +3.3845164760707053e-01   2   1   0   0 
 -1.3362373480317600e+00   2   2   0   0 
 +0.0000000000000000e+00   2   3   0   0 
 +0.0000000000000000e+00   2   4   0   0 
 +0.0000000000000000e+00   3   1   0   0 
 +0.0000000000000000e+00   3   2   0   0 
 -1.5418560697050570e+00   3   3   0   0 
 +3.5299024779442228e-01   3   4   0   0 
 +0.0000000000000000e+00   4   1   0   0 
 +0.0000000000000000e+00   4   2   0   0 
 +3.5299024779442228e-01   4   3   0   0 
 -1.3343711394154889e+00   4   4   0   0 
 -7.1616144266594802e+01   0   0   0   0 
