 &FCI NORB=  4,NELEC=  4,MS2= 0,
  ORBSYM=1,1,3,3,
  ISYM=1,
 /
  0.4282035002590188E+00   1   1   1   1
 -0.1230115498439500E+00   2   1   1   1
  0.1459742921330915E+00   2   1   2   1
  0.3726672061838895E+00   2   2   1   1
 -0.6690396533660647E-01   2   2   2   1
  0.3480978122142225E+00   2   2   2   2
  0.3945443043904215E+00   3   3   1   1
 -0.9116974766470415E-01   3   3   2   1
  0.3534677071331297E+00   3   3   2   2
  0.4112322544490254E+00   3   3   3   3
 -0.1053157216368316E+00   4   3   1   1
  0.1316714749952069E+00   4   3   2   1
 -0.5332425371969630E-01   4   3   2   2
 -0.1129447815053611E+00   4   3   3   3
  0.1518102891815072E+00   4   3   4   3
  0.3618648427628006E+00   4   4   1   1
 -0.5541997992918041E-01   4   4   2   1
  0.3390836762321815E+00   4   4   2   2
  0.3750446796697440E+00   4   4   3   3
 -0.7182820191161748E-01   4   4   4   3
  0.3581249960981107E+00   4   4   4   4
  0.5198172558694494E-01   3   1   3   1
  0.3310044433205235E-01   3   2   3   1
  0.5600895686805073E-01   3   2   3   2
  0.2941389496159860E-01   4   1   3   1
  0.5282927578320502E-01   4   1   3   2
  0.5159028930943408E-01   4   1   4   1
  0.6015395052895165E-01   4   2   3   1
  0.5162930034171290E-01   4   2   3   2
  0.4840962694076271E-01   4   2   4   1
  0.8030410128378365E-01   4   2   4   2
 -0.1558522946833834E+01   1   1   0   0
  0.3384516476070705E+00   2   1   0   0
 -0.1336237348031760E+01   2   2   0   0
 -0.1541856069705057E+01   3   3   0   0
  0.3529902477944223E+00   4   3   0   0
 -0.1334371139415489E+01   4   4   0   0
 -0.7161614426659480E+02   0   0   0   0
