
 Primary working directories    : /scratch/veis/Molpro_96370
 Secondary working directories  : /scratch/veis/Molpro_96370
 Wavefunction directory         : /home/veis/zkousky/h2o_disoc/r_2.4/
 Main file repository           : /scratch/veis/Molpro_96370/

 SHA1      : 2c68d29c09da70e1723824271fadde4bcd5f07a0
 ARCHNAME  : Linux/x86_64
 FC        : /usr/local/programs/common/intel/compiler/2011.5.220/composerxe-2011.5.220/bin/intel64/ifort
 FCVERSION : 12.0.5
 BLASLIB   : -L/usr/local/programs/common/intel/compiler/2011.5.220/composerxe-2011.5.220/mkl/lib/intel64 -lmkl_intel_ilp64 -lmkl_sequential -lmkl_core
 id        : jhinst

 Nodes     nprocs
 b28          7
 Number of processes for MPI-2 version of Molpro:   nprocs(total)=    8   nprocs(compute)=    7   nprocs(helper)=    1
 ga_uses_ma=false, calling ma_init with nominal heap.
 GA-space will be limited to   8.0 MW (determined by -G option)

 Using customized tuning parameters: mindgm=12; mindgv=20; mindgc=4; mindgr=1; noblas=0; minvec=7
 default implementation of scratch files=sf  

 ***,h2o
 memory,500m
 
 r=0.9584*2.4
 a=104.45
 
                                                                                 !symmetry,nosym
 geometry={angstrom
   O;
   H,1,r;
   H,1,r,2,a;}
 
 basis=cc-pVTZ
 spherical
 
 {rhf
 shift,-1.0,-0.5
 wf,10,1,0
 orbprint,6}
 
 {fci
 wf,10,1,0
 core,2,1,0,0
 occ,4,1,2,0
                                                                                 !state,4
                                                                                 !dump
 }
 
 {fci
 wf,10,1,0
 core,2,1,0,0
 occ,4,1,2,0
 dump
 }
 
                                                                                 !put,molden,h2o.molden;
 

 Variables initialized (766), CPU time= 0.00 sec
 Commands  initialized (545), CPU time= 0.01 sec, 513 directives.
 Default parameters read. Elapsed time= 0.06 sec

 Checking input...
 Passed
1


                                         ***  PROGRAM SYSTEM MOLPRO  ***
                         Copyright, University College Cardiff Consultants Limited, 2008

                                    Version 2012.1 linked 30 Oct 2012 00:42:05


 **********************************************************************************************************************************
 LABEL *   h2o                                                                           
 Linux-2.6.38.6-client/b28(x86_64) 64 bit mpp version                                    DATE: 26-Sep-16          TIME: 20:22:21  
 **********************************************************************************************************************************

 SHA1:             2c68d29c09da70e1723824271fadde4bcd5f07a0
 **********************************************************************************************************************************
 SETTING R              =         2.30016000                                  
 SETTING A              =       104.45000000                                  

 Variable memory set to    8388608 words,  buffer space   230000 words

 SETTING BASIS          =    CC-PVTZ


 Recomputing integrals since basis changed


 Using spherical harmonics

 Library entry O      S cc-pVTZ              selected for orbital group  1
 Library entry O      P cc-pVTZ              selected for orbital group  1
 Library entry O      D cc-pVTZ              selected for orbital group  1
 Library entry O      F cc-pVTZ              selected for orbital group  1
 Library entry H      S cc-pVTZ              selected for orbital group  2
 Library entry H      P cc-pVTZ              selected for orbital group  2
 Library entry H      D cc-pVTZ              selected for orbital group  2

1PROGRAM * SEWARD (Integral evaluation for generally contracted gaussian basis sets)     Author: Roland Lindh, 1990

 Geometry written to block  1 of record 700

 Orientation using atomic masses  
 Molecule type: Asymmetric top,     Order of principal axis = 2
 Symmetry elements: X,Y
 Rotational constants:      49.4612877    142.1913944     75.8434312 GHz  (calculated with average atomic masses)

 Point group  C2v 



 ATOMIC COORDINATES

 NR  ATOM    CHARGE       X              Y              Z

   1  O       8.00    0.000000000    0.000000000   -0.297941354
   2  H       1.00    0.000000000    3.435707139    2.364665999
   3  H       1.00    0.000000000   -3.435707139    2.364665999

 NUCLEAR CHARGE:                   10
 NUMBER OF PRIMITIVE AOS:          81
 NUMBER OF SYMMETRY AOS:           74
 NUMBER OF CONTRACTIONS:           58   (  23A1  +  11B1  +  17B2  +   7A2  )
 NUMBER OF CORE ORBITALS:           1   (   1A1  +   0B1  +   0B2  +   0A2  )
 NUMBER OF VALENCE ORBITALS:        6   (   3A1  +   1B1  +   2B2  +   0A2  )


 NUCLEAR REPULSION ENERGY    3.82650714


 Eigenvalues of metric

         1 0.140E-01 0.141E-01 0.492E-01 0.178E+00 0.284E+00 0.346E+00 0.385E+00 0.444E+00
         2 0.498E-01 0.349E+00 0.422E+00 0.489E+00 0.100E+01 0.100E+01 0.100E+01 0.100E+01
         3 0.137E-01 0.483E-01 0.151E+00 0.270E+00 0.382E+00 0.440E+00 0.506E+00 0.998E+00
         4 0.383E+00 0.490E+00 0.999E+00 0.100E+01 0.100E+01 0.151E+01 0.162E+01


 Contracted 2-electron integrals neglected if value below      1.0D-11
 AO integral compression algorithm  1   Integral accuracy      1.0D-11

     3.408 MB (compressed) written to integral file ( 64.8%)

     Node minimum: 0.262 MB, node maximum: 0.524 MB


 NUMBER OF SORTED TWO-ELECTRON INTEGRALS:      55303.     BUFFER LENGTH:  32768
 NUMBER OF SEGMENTS:   1  SEGMENT LENGTH:      55303      RECORD LENGTH: 524288

 Memory used in sort:       0.61 MW

 SORT1 READ      562034. AND WROTE       51273. INTEGRALS IN      1 RECORDS. CPU TIME:     0.02 SEC, REAL TIME:     0.13 SEC
 SORT2 READ      365732. AND WROTE      396151. INTEGRALS IN     14 RECORDS. CPU TIME:     0.00 SEC, REAL TIME:     0.01 SEC

 Node minimum:       55303.  Node maximum:       57357. integrals

 OPERATOR DM      FOR CENTER  0  COORDINATES:    0.000000    0.000000    0.000000


 **********************************************************************************************************************************
 DATASETS  * FILE   NREC   LENGTH (MB)   RECORD NAMES
              1      18        6.10       500      610      700      900      950      970     1000      129      960     1100   
                                          VAR    BASINP    GEOM    SYMINP    ZMAT    AOBASIS   BASIS     P2S    ABASIS      S 
                                         1400     1410     1200     1210     1080     1600     1650     1700   
                                           T        V       H0       H01     AOSYM     SMH    MOLCAS    OPER   

 PROGRAMS   *        TOTAL       INT
 CPU TIMES  *         0.16      0.08
 REAL TIME  *         2.27 SEC
 DISK USED  *        31.30 MB      
 GA USED    *         0.00 MB       (max)       0.00 MB       (current)
 **********************************************************************************************************************************

1PROGRAM * RHF-SCF (CLOSED SHELL)       Authors: W. Meyer, H.-J. Werner


 NUMBER OF ELECTRONS:       5+    5-    SPACE SYMMETRY=1    SPIN SYMMETRY: Singlet 
 CONVERGENCE THRESHOLDS:    1.00E-05 (Density)    1.00E-07 (Energy)
 MAX. NUMBER OF ITERATIONS:       60
 INTERPOLATION TYPE:            DIIS
 INTERPOLATION STEPS:              2 (START)      1 (STEP)
 LEVEL SHIFTS:                 -1.00 (CLOSED) -0.50 (OPEN) 



 Orbital guess generated from atomic densities. Full valence occupancy:    4   1   2   0

 Molecular orbital dump at record        2100.2

 ITERATION    DDIFF          GRAD             ENERGY        2-EL.EN.            DIPOLE MOMENTS         DIIS   ORB.
    1      0.000D+00      0.000D+00       -75.03252101     78.635182    0.00000    0.00000    4.63548    0    start
    2      0.000D+00      0.567D-01       -75.37633570     68.733791    0.00000    0.00000    3.25806    1    diag
    3      0.510D-01      0.233D-01       -75.42822256     68.372147    0.00000    0.00000    2.75615    2    diag
    4      0.119D-01      0.143D-01       -75.47627552     67.162393    0.00000    0.00000    1.97047    3    diag
    5      0.145D-01      0.881D-02       -75.50116189     66.166741    0.00000    0.00000    1.17054    4    diag
    6      0.177D-01      0.283D-02       -75.50325686     65.974210    0.00000    0.00000    0.95946    5    diag
    7      0.583D-02      0.948D-03       -75.50346940     65.941680    0.00000    0.00000    0.94644    6    diag
    8      0.183D-02      0.283D-03       -75.50349679     65.924979    0.00000    0.00000    0.94079    7    diag
    9      0.418D-03      0.243D-03       -75.50351442     65.931766    0.00000    0.00000    0.94446    8    diag
   10      0.215D-03      0.246D-03       -75.50350034     65.935999    0.00000    0.00000    0.94671    9    orth
   11      0.173D-03      0.241D-03       -75.50331348     65.918763    0.00000    0.00000    0.93503    9    diag
   12      0.301D-02      0.143D-03       -75.50325455     65.923024    0.00000    0.00000    0.93502    9    diag
   13      0.244D-02      0.507D-04       -75.50325284     65.919388    0.00000    0.00000    0.93247    9    diag
   14      0.434D-03      0.191D-04       -75.50325277     65.919317    0.00000    0.00000    0.93195    9    diag
   15      0.145D-03      0.578D-05       -75.50325278     65.919306    0.00000    0.00000    0.93189    9    diag
   16      0.980D-05      0.126D-05       -75.50325278     65.919299    0.00000    0.00000    0.93189    0    orth

 Final occupancy:   3   1   1   0

 !RHF STATE 1.1 Energy                -75.503252778577
 Nuclear energy                         3.82650714
 One-electron energy                 -112.28940964
 Two-electron energy                   32.95964973
 Virial quotient                       -1.00766743
 !RHF STATE 1.1 Dipole moment           0.00000000     0.00000000     0.93188886
 Dipole moment /Debye                   0.00000000     0.00000000     2.36847008

 ELECTRON ORBITALS
 =================


   Orb  Occ    Energy  Couls-En    Coefficients

                                   1 1s      1 1s      1 1s      1 1s      1 2pz     1 2pz     1 2pz     1 3d0     1 3d2+    1 3d0  
                                   1 3d2+    1 4f0     1 4f2+    2 1s      2 1s      2 1s      2 2pz     2 2py     2 2pz     2 2py  
                                   2 3d0     2 3d2+    2 3d1- 

   1.1   2   -20.6730  -53.0575  1.000204 -0.000307 -0.000499  0.000482  0.001997 -0.001496 -0.000288 -0.000110  0.000239 -0.000069
                                 0.000109 -0.000008 -0.000017  0.000144  0.000037 -0.000362 -0.000055 -0.000086  0.000149  0.000227
                                 0.000002  0.000038 -0.000053

   2.1   2    -1.2031   -8.6526 -0.004323  0.984697  0.005886  0.006282 -0.016405  0.001654  0.004998 -0.000365  0.000768 -0.000707
                                 0.000759 -0.000150 -0.000241  0.035005  0.000520  0.001895  0.000128  0.000183 -0.004553 -0.006255
                                 0.000017 -0.000325  0.000485

   3.1   2    -0.3932   -5.2522 -0.006799 -0.104040 -0.001318  0.007391  0.675378 -0.005672  0.085950  0.001021 -0.000277  0.003943
                                -0.007846  0.000938 -0.002691  0.508788 -0.028375  0.114226  0.000321  0.002011 -0.006617 -0.023594
                                -0.000403 -0.000875  0.000586

   4.1   0    -0.0860   -4.1159  0.004740 -0.084424 -0.004502 -0.072569 -0.602133  0.018030 -0.128441 -0.000830 -0.000630 -0.000635
                                -0.003393 -0.001263  0.001253  0.670571 -0.078742  0.250130  0.000282 -0.001134  0.015287  0.033412
                                 0.000617  0.000348 -0.000064

   5.1   0     0.3670   -1.4204  0.021509 -0.005643 -0.012842 -0.256033  0.027504  0.048324 -0.200274  0.000297 -0.003388 -0.001756
                                 0.024980  0.001233  0.002318 -0.456597 -1.157384  1.696625 -0.006363 -0.000736  0.044741  0.003901
                                -0.000265 -0.000239 -0.000943

   6.1   0     0.6841   -2.0815 -0.139189 -0.716750  0.046548  0.692861 -0.390342 -0.151366  0.489710 -0.002590  0.001816  0.022345
                                -0.036512 -0.001577 -0.002441 -0.047794 -0.036920 -0.020906  0.010311  0.065857 -0.178292 -0.790132
                                -0.000452  0.001143 -0.002309

   7.1   0     0.7151   -1.2640  0.114884  0.576648 -0.039654 -0.559021 -0.107620 -0.125949  0.327307 -0.003263 -0.003753  0.037953
                                 0.053707  0.002222  0.002635  0.040585  0.007931 -0.068827 -0.088860  0.019251  0.956696 -0.220570
                                 0.001578  0.001614 -0.000390

   8.1   0     0.8891   -2.6495  0.218367  1.031950 -0.074967 -1.088694 -0.543384 -0.388445  1.203253  0.001308 -0.001482 -0.028390
                                 0.013614 -0.000789  0.002466 -0.132726 -0.071453  0.122579  0.008812 -0.041657 -0.232776  0.413928
                                -0.010654 -0.004143 -0.006041

   9.1   0     1.2806   -1.9323 -0.443746 -2.069165  0.112016  2.406186 -0.241553 -0.182004  0.719317 -0.000835 -0.004005 -0.019824
                                 0.157179  0.002033  0.005799 -0.290706  0.363518 -0.402348 -0.015608 -0.021417  0.351894  0.605025
                                -0.007231 -0.028918  0.034781

                                   1 2px     1 2px     1 2px     1 3d1+    1 3d1+    1 4f1+    1 4f3+    2 2px     2 2px     2 3d1+ 
                                   2 3d2- 

   1.2   2    -0.5223   -7.2722  0.999978 -0.018439  0.022917  0.001320  0.002161  0.002248 -0.003242 -0.000849  0.008796 -0.000413
                                -0.000546

   2.2   0     0.6872   -1.7778 -0.375783 -0.250729  0.766861 -0.002924  0.028281  0.000031 -0.000794 -0.077388  0.827756 -0.000741
                                -0.000976

   3.2   0     0.8649   -2.1101  0.528740  0.360095 -1.202036 -0.000855  0.025227  0.001420 -0.002641 -0.050538  0.659991  0.009850
                                 0.012716

   4.2   0     1.7650   -1.8622 -0.011388  0.002923  0.010674 -0.014535  1.006354  0.002201  0.000118 -0.014210 -0.051504 -0.009222
                                -0.014946

   5.2   0     3.3718    4.2561 -0.007150  0.005609  0.003019 -0.000531 -0.001545  0.000324  0.000329 -0.000091 -0.000134  0.805862
                                -0.592097

   6.2   0     3.3804    4.1436 -0.285718  0.224304  0.120419  0.006307  0.019585 -0.000728  0.002547  0.005616 -0.014376  0.589379
                                 0.802467

   7.2   0     3.7878    4.8477 -0.548158  0.478432  0.158937  0.009400  0.023828 -0.002511  0.008379  1.244439 -0.692824 -0.012205
                                -0.016106

                                   1 2py     1 2py     1 2py     1 3d1-    1 3d1-    1 4f1-    1 4f3-    2 1s      2 1s      2 1s   
                                   2 2py     2 2pz     2 2py     2 2pz     2 3d1-    2 3d0     2 3d2+ 

   1.3   2    -0.3935   -5.0952  0.641961 -0.003511  0.085385  0.001393  0.015265  0.000937 -0.002669  0.532421 -0.023829  0.112992
                                 0.001318  0.001637 -0.017056 -0.020380  0.001165  0.000427 -0.000482

   2.3   0    -0.0640   -4.1626 -0.628216  0.019718 -0.148542  0.000192  0.003772 -0.000076  0.001958  0.680842 -0.076076  0.262631
                                 0.000014 -0.001143  0.029297  0.032251 -0.000003 -0.000438 -0.000304

   3.3   0     0.3990   -1.2384  0.027529  0.049831 -0.248044  0.005929 -0.043558 -0.001743  0.001279 -0.417060 -1.230105  1.860120
                                -0.015034 -0.004591  0.122700  0.042641  0.000283  0.000188  0.000845

   4.3   0     0.7040   -2.0522 -0.475020 -0.209659  0.645779 -0.002108  0.043646 -0.000391 -0.000654 -0.098833 -0.135864  0.156022
                                -0.000370  0.064578 -0.108742 -0.790326 -0.004095 -0.000780  0.002339

   5.3   0     0.7504   -1.0941  0.205869  0.043226 -0.168793  0.003271 -0.066246 -0.003935 -0.000509  0.146358  0.150484 -0.328328
                                -0.078951  0.035534  0.945758 -0.367680  0.000615 -0.004486 -0.004380

   6.3   0     1.0577   -1.9138 -0.515071 -0.439543  1.458608  0.007456 -0.181943 -0.002927  0.004148 -0.081974  0.172633 -0.454614
                                -0.044935 -0.048578  0.475631  0.644619  0.015016  0.012657 -0.001418

   7.3   0     1.8213   -1.4306 -0.143908 -0.024664  0.320676 -0.011724  0.965154  0.000826  0.001266 -1.137435  0.910431  0.107384
                                 0.042001  0.027581  0.257556  0.194232  0.074913  0.004151 -0.048834

                                   1 3d2-    1 3d2-    1 4f2-    2 2px     2 2px     2 3d2-    2 3d1+ 

   1.4   0     0.7367   -0.8903 -0.003669  0.046807  0.002957 -0.094566  1.053003  0.004373  0.003272

   2.4   0     1.7651   -1.8610 -0.014590  1.005845  0.001588 -0.018135 -0.064336 -0.016523 -0.014597

   3.4   0     3.3718    4.2562 -0.000663 -0.001945 -0.000063  0.000446 -0.000121  0.599893 -0.800078

   4.4   0     3.3766    4.1928  0.008569  0.025450 -0.003669  0.021207 -0.018958  0.799751  0.599600

   5.4   0     3.7867    5.0247  0.013080  0.031239 -0.011961  1.264137 -0.704243 -0.013640 -0.009827

   6.4   0     5.5581    4.5519  0.008999 -0.005386  0.999920  0.021622 -0.021592  0.003266  0.002362

 HOMO      3.1    -0.393213 =     -10.6999eV
 LUMO      4.1    -0.085951 =      -2.3388eV
 LUMO-HOMO         0.307262 =       8.3610eV


 **********************************************************************************************************************************
 DATASETS  * FILE   NREC   LENGTH (MB)   RECORD NAMES
              1      18        6.10       500      610      700      900      950      970     1000      129      960     1100   
                                          VAR    BASINP    GEOM    SYMINP    ZMAT    AOBASIS   BASIS     P2S    ABASIS      S 
                                         1400     1410     1200     1210     1080     1600     1650     1700   
                                           T        V       H0       H01     AOSYM     SMH    MOLCAS    OPER   

              2       4        0.33       700     1000      520     2100   
                                         GEOM     BASIS   MCVARS     RHF  

 PROGRAMS   *        TOTAL       RHF       INT
 CPU TIMES  *         0.22      0.06      0.08
 REAL TIME  *         4.02 SEC
 DISK USED  *        77.15 MB      
 SF USED    *         0.00 MB      
 GA USED    *         0.00 MB       (max)       0.00 MB       (current)
 **********************************************************************************************************************************

1PROGRAM * FCI (Full CI)     Author: P.J. Knowles, 1984

 ***  Initialisation ***
 
 Molecular orbitals read from record     2100.2  Type=RHF/CANONICAL (state 1.1)
 
 Frozen orbitals:              3 (  2  1  0  0  0  0  0  0)
 Active orbitals:              4 (  2  0  2  0  0  0  0  0)
 Active electrons:             4
 Spin quantum number:          0.0
 Orbital pairs:                     6       0       4       0       0       0       0       0
 Strings:                           2       0       4       0       0       0       0       0
                                    2       0       4       0       0       0       0       0
 Determinants:                     20       0      16       0       0       0       0       0

 Load integrals                0.3 sec
 Transform integrals           0.5 sec
 Storage for integrals:             88
 Remaining memory:             8385024

 Core energy:             -71.61614427
 Run Hamiltonian processor DAVIDSON
 Symmetry:                   1
 Trial vector:                  0.00
 Result vector:                 0.00
 Maximum iterations:           90
 Convergence threshold:         0.0000100
 RHS vector:                    0.00
 Hamiltonian shift:             0.0000000
 Output threshold:              0.0500000
 Options:                        0
 Number of roots:             1

 Hamiltonian diagonaliser entered at time      0.87

 Initial configuration generated:
       5      1.0000000    -75.5032528

 It  Tr    CPU  Convergence   Energy       Pop     dE(next)

  1   1    0.9  1.00000000   -75.50325278
                                           0.35 -0.67442393 -0.60616932
  2   1    0.9  0.41445919   -75.63729931
                                           0.35 -0.11228862 -0.09214124
  3   1    0.9  0.44681094   -75.72075511
                                           0.30 -0.02128523 -0.01931688
  4   1    0.9  0.15456617   -75.73348156
                                           0.50 -0.00859726 -0.00769526
  5   1    0.9  0.11848109   -75.74043029
                                           0.35 -0.00300073 -0.00275929
  6   1    0.9  0.18395331   -75.74672067
                                           0.35 -0.00312197 -0.00249441
  7   1    0.9  0.10343359   -75.74991502
                                           0.20 -0.00131610 -0.00109223
  8   1    0.9  0.04797675   -75.75103174
                                           0.30 -0.00038752 -0.00035866
  9   1    0.9  0.02790683   -75.75137405
                                           0.30 -0.00002933 -0.00002043
 10   1    0.9  0.01109889   -75.75140987
                                           0.40 -0.00001098 -0.00000832
 11   1    0.9  0.01675396   -75.75143902
                                           0.55 -0.00001110 -0.00000978
 12   1    0.9  0.01166467   -75.75146156
                                           0.20 -0.00001041 -0.00000717
 13   1    0.9  0.02338135   -75.75149915


RESULTS FOR STATE 1.1
=====================

 Correlation energy                    -0.248246370632
 !FCI STATE 1.1 Energy                -75.751499149209
 CI Vector (threshold= 0.500E-01)
      -0.064367810610  1  2  3  4  5  1  2  3  4  5
       0.250105975030  1  2  3  4  5  1  2  3  6  7
       0.250105975030  1  2  3  6  7  1  2  3  4  5
      -0.059777509862  1  2  3  6  7  1  2  3  6  7
       0.676760497614  1  2  3  4  6  1  2  3  4  6
       0.076222271295  1  2  3  4  6  1  2  3  5  6
       0.087026985630  1  2  3  4  6  1  2  3  5  7
      -0.335437060838  1  2  3  4  7  1  2  3  4  7
      -0.163078989400  1  2  3  4  7  1  2  3  5  6
       0.076222271295  1  2  3  5  6  1  2  3  4  6
      -0.163078989400  1  2  3  5  6  1  2  3  4  7
      -0.375016182415  1  2  3  5  6  1  2  3  5  6
       0.087026985630  1  2  3  5  7  1  2  3  4  6
       0.262440070184  1  2  3  5  7  1  2  3  5  7
 /EOF
 !FCI STATE 1.1 Dipole moment           0.00000000     0.00000000     0.04855665
 Dipole moment /Debye                   0.00000000     0.00000000     0.12341061


 **********************************************************************************************************************************
 DATASETS  * FILE   NREC   LENGTH (MB)   RECORD NAMES
              1      18        6.10       500      610      700      900      950      970     1000      129      960     1100   
                                          VAR    BASINP    GEOM    SYMINP    ZMAT    AOBASIS   BASIS     P2S    ABASIS      S 
                                         1400     1410     1200     1210     1080     1600     1650     1700   
                                           T        V       H0       H01     AOSYM     SMH    MOLCAS    OPER   

              2       4        0.33       700     1000      520     2100   
                                         GEOM     BASIS   MCVARS     RHF  

 PROGRAMS   *        TOTAL       FCI       RHF       INT
 CPU TIMES  *         0.78      0.56      0.06      0.08
 REAL TIME  *         8.10 SEC
 DISK USED  *        77.15 MB      
 SF USED    *         0.00 MB      
 GA USED    *         0.00 MB       (max)       0.00 MB       (current)
 **********************************************************************************************************************************

1PROGRAM * FCI (Full CI)     Author: P.J. Knowles, 1984

 ***  Initialisation ***
 
 Molecular orbitals read from record     2100.2  Type=RHF/CANONICAL (state 1.1)
 
 Frozen orbitals:              3 (  2  1  0  0  0  0  0  0)
 Active orbitals:              4 (  2  0  2  0  0  0  0  0)
 Active electrons:             4
 Spin quantum number:          0.0

 Transformed integrals will be written to file FCIDUMP (relative to TMPDIR)
 File format: FCIDUMP.

 Load integrals                0.9 sec
 Transform integrals           1.1 sec
 Storage for integrals:             88
 Remaining memory:             8385024

 Core energy:             -71.61614427
 Run Hamiltonian processor DUMP    
 Symmetry:                   1
 Trial vector:                  0.00
 Result vector:                 0.00
 Maximum iterations:           90
 Convergence threshold:         0.0000100
 RHS vector:                    0.00
 Hamiltonian shift:             0.0000000
 Output threshold:              0.0500000
 Options:                        0
 Number of roots:             1


 **********************************************************************************************************************************
 DATASETS  * FILE   NREC   LENGTH (MB)   RECORD NAMES
              1      18        6.10       500      610      700      900      950      970     1000      129      960     1100   
                                          VAR    BASINP    GEOM    SYMINP    ZMAT    AOBASIS   BASIS     P2S    ABASIS      S 
                                         1400     1410     1200     1210     1080     1600     1650     1700   
                                           T        V       H0       H01     AOSYM     SMH    MOLCAS    OPER   

              2       4        0.33       700     1000      520     2100   
                                         GEOM     BASIS   MCVARS     RHF  

 PROGRAMS   *        TOTAL       FCI       FCI       RHF       INT
 CPU TIMES  *         2.02      0.53      0.56      0.06      0.08
 REAL TIME  *         9.88 SEC
 DISK USED  *        77.15 MB      
 SF USED    *         0.00 MB      
 GA USED    *         0.00 MB       (max)       0.00 MB       (current)
 **********************************************************************************************************************************

        FCI             RHF-SCF 
    -75.75149915    -75.50325278
 **********************************************************************************************************************************
 Variable memory released
