 &FCI NORB=  4,NELEC=  4,MS2= 0,
  ORBSYM=1,1,3,3,
  ISYM=1,
 /
  0.6871243123572293E+00   1   1   1   1
 -0.6545105092206535E-01   2   1   1   1
  0.2304468912547668E-01   2   1   2   1
  0.3192707706837086E+00   2   2   1   1
 -0.3273942116876538E-02   2   2   2   1
  0.2735652003910806E+00   2   2   2   2
  0.5826949944491409E+00   3   3   1   1
 -0.4348211875168767E-01   3   3   2   1
  0.3301054691116839E+00   3   3   2   2
  0.6329881769612065E+00   3   3   3   3
 -0.1033829752637604E+00   4   3   1   1
  0.2367658356759854E-01   4   3   2   1
 -0.1194356353019507E-01   4   3   2   2
 -0.9832716745981539E-01   4   3   3   3
  0.4418515172327550E-01   4   3   4   3
  0.2967131747008837E+00   4   4   1   1
  0.1053722261055573E-02   4   4   2   1
  0.2603821108692319E+00   4   4   2   2
  0.3129471488448436E+00   4   4   3   3
 -0.1058755606275882E-01   4   4   4   3
  0.2643968384711929E+00   4   4   4   4
  0.4195872041970297E-01   3   1   3   1
  0.5951607396776647E-02   3   2   3   1
  0.1785645195180656E-01   3   2   3   2
 -0.3700719709843003E-02   4   1   3   1
  0.8713479656467925E-02   4   1   3   2
  0.1124677740725076E-01   4   1   4   1
  0.1823240801688084E-01   4   2   3   1
  0.2237893816549429E-01   4   2   3   2
  0.1671781842275184E-01   4   2   4   1
  0.6503949123036827E-01   4   2   4   2
 -0.2370021175581198E+01   1   1   0   0
  0.1583641212351381E+00   2   1   0   0
 -0.1127519313393598E+01   2   2   0   0
 -0.2416575354229120E+01   3   3   0   0
  0.3013965318624896E+00   4   3   0   0
 -0.9705718922502309E+00   4   4   0   0
 -0.7002933236451759E+02   0   0   0   0
