 &FCI NORB=  4,NELEC=  4,MS2= 0, 
   ORBSYM=1,1,1,1,
   ISYM=1,
  /
 +6.8712431235722926e-01   1   1   1   1 
 -6.5451050922065351e-02   1   1   1   2 
 +0.0000000000000000e+00   1   1   1   3 
 +0.0000000000000000e+00   1   1   1   4 
 -6.5451050922065351e-02   1   1   2   1 
 +3.1927077068370863e-01   1   1   2   2 
 +0.0000000000000000e+00   1   1   2   3 
 +0.0000000000000000e+00   1   1   2   4 
 +0.0000000000000000e+00   1   1   3   1 
 +0.0000000000000000e+00   1   1   3   2 
 +5.8269499444914086e-01   1   1   3   3 
 -1.0338297526376040e-01   1   1   3   4 
 +0.0000000000000000e+00   1   1   4   1 
 +0.0000000000000000e+00   1   1   4   2 
 -1.0338297526376040e-01   1   1   4   3 
 +2.9671317470088371e-01   1   1   4   4 
 -6.5451050922065351e-02   1   2   1   1 
 +2.3044689125476681e-02   1   2   1   2 
 +0.0000000000000000e+00   1   2   1   3 
 +0.0000000000000000e+00   1   2   1   4 
 +2.3044689125476681e-02   1   2   2   1 
 -3.2739421168765381e-03   1   2   2   2 
 +0.0000000000000000e+00   1   2   2   3 
 +0.0000000000000000e+00   1   2   2   4 
 +0.0000000000000000e+00   1   2   3   1 
 +0.0000000000000000e+00   1   2   3   2 
 -4.3482118751687671e-02   1   2   3   3 
 +2.3676583567598539e-02   1   2   3   4 
 +0.0000000000000000e+00   1   2   4   1 
 +0.0000000000000000e+00   1   2   4   2 
 +2.3676583567598539e-02   1   2   4   3 
 +1.0537222610555730e-03   1   2   4   4 
 +0.0000000000000000e+00   1   3   1   1 
 +0.0000000000000000e+00   1   3   1   2 
 +4.1958720419702972e-02   1   3   1   3 
 -3.7007197098430028e-03   1   3   1   4 
 +0.0000000000000000e+00   1   3   2   1 
 +0.0000000000000000e+00   1   3   2   2 
 +5.9516073967766474e-03   1   3   2   3 
 +1.8232408016880839e-02   1   3   2   4 
 +4.1958720419702972e-02   1   3   3   1 
 +5.9516073967766474e-03   1   3   3   2 
 +0.0000000000000000e+00   1   3   3   3 
 +0.0000000000000000e+00   1   3   3   4 
 -3.7007197098430028e-03   1   3   4   1 
 +1.8232408016880839e-02   1   3   4   2 
 +0.0000000000000000e+00   1   3   4   3 
 +0.0000000000000000e+00   1   3   4   4 
 +0.0000000000000000e+00   1   4   1   1 
 +0.0000000000000000e+00   1   4   1   2 
 -3.7007197098430028e-03   1   4   1   3 
 +1.1246777407250760e-02   1   4   1   4 
 +0.0000000000000000e+00   1   4   2   1 
 +0.0000000000000000e+00   1   4   2   2 
 +8.7134796564679248e-03   1   4   2   3 
 +1.6717818422751839e-02   1   4   2   4 
 -3.7007197098430028e-03   1   4   3   1 
 +8.7134796564679248e-03   1   4   3   2 
 +0.0000000000000000e+00   1   4   3   3 
 +0.0000000000000000e+00   1   4   3   4 
 +1.1246777407250760e-02   1   4   4   1 
 +1.6717818422751839e-02   1   4   4   2 
 +0.0000000000000000e+00   1   4   4   3 
 +0.0000000000000000e+00   1   4   4   4 
 -6.5451050922065351e-02   2   1   1   1 
 +2.3044689125476681e-02   2   1   1   2 
 +0.0000000000000000e+00   2   1   1   3 
 +0.0000000000000000e+00   2   1   1   4 
 +2.3044689125476681e-02   2   1   2   1 
 -3.2739421168765381e-03   2   1   2   2 
 +0.0000000000000000e+00   2   1   2   3 
 +0.0000000000000000e+00   2   1   2   4 
 +0.0000000000000000e+00   2   1   3   1 
 +0.0000000000000000e+00   2   1   3   2 
 -4.3482118751687671e-02   2   1   3   3 
 +2.3676583567598539e-02   2   1   3   4 
 +0.0000000000000000e+00   2   1   4   1 
 +0.0000000000000000e+00   2   1   4   2 
 +2.3676583567598539e-02   2   1   4   3 
 +1.0537222610555730e-03   2   1   4   4 
 +3.1927077068370863e-01   2   2   1   1 
 -3.2739421168765381e-03   2   2   1   2 
 +0.0000000000000000e+00   2   2   1   3 
 +0.0000000000000000e+00   2   2   1   4 
 -3.2739421168765381e-03   2   2   2   1 
 +2.7356520039108062e-01   2   2   2   2 
 +0.0000000000000000e+00   2   2   2   3 
 +0.0000000000000000e+00   2   2   2   4 
 +0.0000000000000000e+00   2   2   3   1 
 +0.0000000000000000e+00   2   2   3   2 
 +3.3010546911168392e-01   2   2   3   3 
 -1.1943563530195069e-02   2   2   3   4 
 +0.0000000000000000e+00   2   2   4   1 
 +0.0000000000000000e+00   2   2   4   2 
 -1.1943563530195069e-02   2   2   4   3 
 +2.6038211086923191e-01   2   2   4   4 
 +0.0000000000000000e+00   2   3   1   1 
 +0.0000000000000000e+00   2   3   1   2 
 +5.9516073967766474e-03   2   3   1   3 
 +8.7134796564679248e-03   2   3   1   4 
 +0.0000000000000000e+00   2   3   2   1 
 +0.0000000000000000e+00   2   3   2   2 
 +1.7856451951806560e-02   2   3   2   3 
 +2.2378938165494289e-02   2   3   2   4 
 +5.9516073967766474e-03   2   3   3   1 
 +1.7856451951806560e-02   2   3   3   2 
 +0.0000000000000000e+00   2   3   3   3 
 +0.0000000000000000e+00   2   3   3   4 
 +8.7134796564679248e-03   2   3   4   1 
 +2.2378938165494289e-02   2   3   4   2 
 +0.0000000000000000e+00   2   3   4   3 
 +0.0000000000000000e+00   2   3   4   4 
 +0.0000000000000000e+00   2   4   1   1 
 +0.0000000000000000e+00   2   4   1   2 
 +1.8232408016880839e-02   2   4   1   3 
 +1.6717818422751839e-02   2   4   1   4 
 +0.0000000000000000e+00   2   4   2   1 
 +0.0000000000000000e+00   2   4   2   2 
 +2.2378938165494289e-02   2   4   2   3 
 +6.5039491230368271e-02   2   4   2   4 
 +1.8232408016880839e-02   2   4   3   1 
 +2.2378938165494289e-02   2   4   3   2 
 +0.0000000000000000e+00   2   4   3   3 
 +0.0000000000000000e+00   2   4   3   4 
 +1.6717818422751839e-02   2   4   4   1 
 +6.5039491230368271e-02   2   4   4   2 
 +0.0000000000000000e+00   2   4   4   3 
 +0.0000000000000000e+00   2   4   4   4 
 +0.0000000000000000e+00   3   1   1   1 
 +0.0000000000000000e+00   3   1   1   2 
 +4.1958720419702972e-02   3   1   1   3 
 -3.7007197098430028e-03   3   1   1   4 
 +0.0000000000000000e+00   3   1   2   1 
 +0.0000000000000000e+00   3   1   2   2 
 +5.9516073967766474e-03   3   1   2   3 
 +1.8232408016880839e-02   3   1   2   4 
 +4.1958720419702972e-02   3   1   3   1 
 +5.9516073967766474e-03   3   1   3   2 
 +0.0000000000000000e+00   3   1   3   3 
 +0.0000000000000000e+00   3   1   3   4 
 -3.7007197098430028e-03   3   1   4   1 
 +1.8232408016880839e-02   3   1   4   2 
 +0.0000000000000000e+00   3   1   4   3 
 +0.0000000000000000e+00   3   1   4   4 
 +0.0000000000000000e+00   3   2   1   1 
 +0.0000000000000000e+00   3   2   1   2 
 +5.9516073967766474e-03   3   2   1   3 
 +8.7134796564679248e-03   3   2   1   4 
 +0.0000000000000000e+00   3   2   2   1 
 +0.0000000000000000e+00   3   2   2   2 
 +1.7856451951806560e-02   3   2   2   3 
 +2.2378938165494289e-02   3   2   2   4 
 +5.9516073967766474e-03   3   2   3   1 
 +1.7856451951806560e-02   3   2   3   2 
 +0.0000000000000000e+00   3   2   3   3 
 +0.0000000000000000e+00   3   2   3   4 
 +8.7134796564679248e-03   3   2   4   1 
 +2.2378938165494289e-02   3   2   4   2 
 +0.0000000000000000e+00   3   2   4   3 
 +0.0000000000000000e+00   3   2   4   4 
 +5.8269499444914086e-01   3   3   1   1 
 -4.3482118751687671e-02   3   3   1   2 
 +0.0000000000000000e+00   3   3   1   3 
 +0.0000000000000000e+00   3   3   1   4 
 -4.3482118751687671e-02   3   3   2   1 
 +3.3010546911168392e-01   3   3   2   2 
 +0.0000000000000000e+00   3   3   2   3 
 +0.0000000000000000e+00   3   3   2   4 
 +0.0000000000000000e+00   3   3   3   1 
 +0.0000000000000000e+00   3   3   3   2 
 +6.3298817696120646e-01   3   3   3   3 
 -9.8327167459815387e-02   3   3   3   4 
 +0.0000000000000000e+00   3   3   4   1 
 +0.0000000000000000e+00   3   3   4   2 
 -9.8327167459815387e-02   3   3   4   3 
 +3.1294714884484359e-01   3   3   4   4 
 -1.0338297526376040e-01   3   4   1   1 
 +2.3676583567598539e-02   3   4   1   2 
 +0.0000000000000000e+00   3   4   1   3 
 +0.0000000000000000e+00   3   4   1   4 
 +2.3676583567598539e-02   3   4   2   1 
 -1.1943563530195069e-02   3   4   2   2 
 +0.0000000000000000e+00   3   4   2   3 
 +0.0000000000000000e+00   3   4   2   4 
 +0.0000000000000000e+00   3   4   3   1 
 +0.0000000000000000e+00   3   4   3   2 
 -9.8327167459815387e-02   3   4   3   3 
 +4.4185151723275501e-02   3   4   3   4 
 +0.0000000000000000e+00   3   4   4   1 
 +0.0000000000000000e+00   3   4   4   2 
 +4.4185151723275501e-02   3   4   4   3 
 -1.0587556062758820e-02   3   4   4   4 
 +0.0000000000000000e+00   4   1   1   1 
 +0.0000000000000000e+00   4   1   1   2 
 -3.7007197098430028e-03   4   1   1   3 
 +1.1246777407250760e-02   4   1   1   4 
 +0.0000000000000000e+00   4   1   2   1 
 +0.0000000000000000e+00   4   1   2   2 
 +8.7134796564679248e-03   4   1   2   3 
 +1.6717818422751839e-02   4   1   2   4 
 -3.7007197098430028e-03   4   1   3   1 
 +8.7134796564679248e-03   4   1   3   2 
 +0.0000000000000000e+00   4   1   3   3 
 +0.0000000000000000e+00   4   1   3   4 
 +1.1246777407250760e-02   4   1   4   1 
 +1.6717818422751839e-02   4   1   4   2 
 +0.0000000000000000e+00   4   1   4   3 
 +0.0000000000000000e+00   4   1   4   4 
 +0.0000000000000000e+00   4   2   1   1 
 +0.0000000000000000e+00   4   2   1   2 
 +1.8232408016880839e-02   4   2   1   3 
 +1.6717818422751839e-02   4   2   1   4 
 +0.0000000000000000e+00   4   2   2   1 
 +0.0000000000000000e+00   4   2   2   2 
 +2.2378938165494289e-02   4   2   2   3 
 +6.5039491230368271e-02   4   2   2   4 
 +1.8232408016880839e-02   4   2   3   1 
 +2.2378938165494289e-02   4   2   3   2 
 +0.0000000000000000e+00   4   2   3   3 
 +0.0000000000000000e+00   4   2   3   4 
 +1.6717818422751839e-02   4   2   4   1 
 +6.5039491230368271e-02   4   2   4   2 
 +0.0000000000000000e+00   4   2   4   3 
 +0.0000000000000000e+00   4   2   4   4 
 -1.0338297526376040e-01   4   3   1   1 
 +2.3676583567598539e-02   4   3   1   2 
 +0.0000000000000000e+00   4   3   1   3 
 +0.0000000000000000e+00   4   3   1   4 
 +2.3676583567598539e-02   4   3   2   1 
 -1.1943563530195069e-02   4   3   2   2 
 +0.0000000000000000e+00   4   3   2   3 
 +0.0000000000000000e+00   4   3   2   4 
 +0.0000000000000000e+00   4   3   3   1 
 +0.0000000000000000e+00   4   3   3   2 
 -9.8327167459815387e-02   4   3   3   3 
 +4.4185151723275501e-02   4   3   3   4 
 +0.0000000000000000e+00   4   3   4   1 
 +0.0000000000000000e+00   4   3   4   2 
 +4.4185151723275501e-02   4   3   4   3 
 -1.0587556062758820e-02   4   3   4   4 
 +2.9671317470088371e-01   4   4   1   1 
 +1.0537222610555730e-03   4   4   1   2 
 +0.0000000000000000e+00   4   4   1   3 
 +0.0000000000000000e+00   4   4   1   4 
 +1.0537222610555730e-03   4   4   2   1 
 +2.6038211086923191e-01   4   4   2   2 
 +0.0000000000000000e+00   4   4   2   3 
 +0.0000000000000000e+00   4   4   2   4 
 +0.0000000000000000e+00   4   4   3   1 
 +0.0000000000000000e+00   4   4   3   2 
 +3.1294714884484359e-01   4   4   3   3 
 -1.0587556062758820e-02   4   4   3   4 
 +0.0000000000000000e+00   4   4   4   1 
 +0.0000000000000000e+00   4   4   4   2 
 -1.0587556062758820e-02   4   4   4   3 
 +2.6439683847119289e-01   4   4   4   4 
 -2.3700211755811980e+00   1   1   0   0 
 +1.5836412123513810e-01   1   2   0   0 
 +0.0000000000000000e+00   1   3   0   0 
 +0.0000000000000000e+00   1   4   0   0 
 +1.5836412123513810e-01   2   1   0   0 
 -1.1275193133935979e+00   2   2   0   0 
 +0.0000000000000000e+00   2   3   0   0 
 +0.0000000000000000e+00   2   4   0   0 
 +0.0000000000000000e+00   3   1   0   0 
 +0.0000000000000000e+00   3   2   0   0 
 -2.4165753542291202e+00   3   3   0   0 
 +3.0139653186248960e-01   3   4   0   0 
 +0.0000000000000000e+00   4   1   0   0 
 +0.0000000000000000e+00   4   2   0   0 
 +3.0139653186248960e-01   4   3   0   0 
 -9.7057189225023088e-01   4   4   0   0 
 -7.0029332364517586e+01   0   0   0   0 
