
 Primary working directories    : /scratch/veis/Molpro_96369
 Secondary working directories  : /scratch/veis/Molpro_96369
 Wavefunction directory         : /home/veis/zkousky/h2o_disoc/r_2.2/
 Main file repository           : /scratch/veis/Molpro_96369/

 SHA1      : 2c68d29c09da70e1723824271fadde4bcd5f07a0
 ARCHNAME  : Linux/x86_64
 FC        : /usr/local/programs/common/intel/compiler/2011.5.220/composerxe-2011.5.220/bin/intel64/ifort
 FCVERSION : 12.0.5
 BLASLIB   : -L/usr/local/programs/common/intel/compiler/2011.5.220/composerxe-2011.5.220/mkl/lib/intel64 -lmkl_intel_ilp64 -lmkl_sequential -lmkl_core
 id        : jhinst

 Nodes     nprocs
 b04          7
 Number of processes for MPI-2 version of Molpro:   nprocs(total)=    8   nprocs(compute)=    7   nprocs(helper)=    1
 ga_uses_ma=false, calling ma_init with nominal heap.
 GA-space will be limited to   8.0 MW (determined by -G option)

 Using customized tuning parameters: mindgm=12; mindgv=20; mindgc=4; mindgr=1; noblas=0; minvec=7
 default implementation of scratch files=sf  

 ***,h2o
 memory,500m
 
 r=0.9584*2.2
 a=104.45
 
                                                                                 !symmetry,nosym
 geometry={angstrom
   O;
   H,1,r;
   H,1,r,2,a;}
 
 basis=cc-pVTZ
 spherical
 
 {rhf
 shift,-1.0,-0.5
 wf,10,1,0
 orbprint,6}
 
 {fci
 wf,10,1,0
 core,2,1,0,0
 occ,4,1,2,0
                                                                                 !state,4
                                                                                 !dump
 }
 
 {fci
 wf,10,1,0
 core,2,1,0,0
 occ,4,1,2,0
 dump
 }
 
                                                                                 !put,molden,h2o.molden;
 

 Variables initialized (766), CPU time= 0.01 sec
 Commands  initialized (545), CPU time= 0.01 sec, 513 directives.
 Default parameters read. Elapsed time= 0.06 sec

 Checking input...
 Passed
1


                                         ***  PROGRAM SYSTEM MOLPRO  ***
                         Copyright, University College Cardiff Consultants Limited, 2008

                                    Version 2012.1 linked 30 Oct 2012 00:42:05


 **********************************************************************************************************************************
 LABEL *   h2o                                                                           
 Linux-2.6.38.6-client/b04(x86_64) 64 bit mpp version                                    DATE: 26-Sep-16          TIME: 20:22:06  
 **********************************************************************************************************************************

 SHA1:             2c68d29c09da70e1723824271fadde4bcd5f07a0
 **********************************************************************************************************************************
 SETTING R              =         2.10848000                                  
 SETTING A              =       104.45000000                                  

 Variable memory set to    8388608 words,  buffer space   230000 words

 SETTING BASIS          =    CC-PVTZ


 Recomputing integrals since basis changed


 Using spherical harmonics

 Library entry O      S cc-pVTZ              selected for orbital group  1
 Library entry O      P cc-pVTZ              selected for orbital group  1
 Library entry O      D cc-pVTZ              selected for orbital group  1
 Library entry O      F cc-pVTZ              selected for orbital group  1
 Library entry H      S cc-pVTZ              selected for orbital group  2
 Library entry H      P cc-pVTZ              selected for orbital group  2
 Library entry H      D cc-pVTZ              selected for orbital group  2

1PROGRAM * SEWARD (Integral evaluation for generally contracted gaussian basis sets)     Author: Roland Lindh, 1990

 Geometry written to block  1 of record 700

 Orientation using atomic masses  
 Molecule type: Asymmetric top,     Order of principal axis = 2
 Symmetry elements: X,Y
 Rotational constants:      58.8630201    169.2195107     90.2599512 GHz  (calculated with average atomic masses)

 Point group  C2v 



 ATOMIC COORDINATES

 NR  ATOM    CHARGE       X              Y              Z

   1  O       8.00    0.000000000    0.000000000   -0.273112908
   2  H       1.00    0.000000000    3.149398211    2.167610499
   3  H       1.00    0.000000000   -3.149398211    2.167610499

 NUCLEAR CHARGE:                   10
 NUMBER OF PRIMITIVE AOS:          81
 NUMBER OF SYMMETRY AOS:           74
 NUMBER OF CONTRACTIONS:           58   (  23A1  +  11B1  +  17B2  +   7A2  )
 NUMBER OF CORE ORBITALS:           1   (   1A1  +   0B1  +   0B2  +   0A2  )
 NUMBER OF VALENCE ORBITALS:        6   (   3A1  +   1B1  +   2B2  +   0A2  )


 NUCLEAR REPULSION ENERGY    4.17437142


 Eigenvalues of metric

         1 0.128E-01 0.141E-01 0.491E-01 0.162E+00 0.257E+00 0.343E+00 0.383E+00 0.437E+00
         2 0.498E-01 0.332E+00 0.432E+00 0.491E+00 0.998E+00 0.100E+01 0.100E+01 0.100E+01
         3 0.136E-01 0.481E-01 0.132E+00 0.239E+00 0.374E+00 0.428E+00 0.509E+00 0.991E+00
         4 0.379E+00 0.492E+00 0.997E+00 0.100E+01 0.100E+01 0.150E+01 0.162E+01


 Contracted 2-electron integrals neglected if value below      1.0D-11
 AO integral compression algorithm  1   Integral accuracy      1.0D-11

     3.670 MB (compressed) written to integral file ( 63.0%)

     Node minimum: 0.524 MB, node maximum: 0.524 MB


 NUMBER OF SORTED TWO-ELECTRON INTEGRALS:      55303.     BUFFER LENGTH:  32768
 NUMBER OF SEGMENTS:   1  SEGMENT LENGTH:      55303      RECORD LENGTH: 524288

 Memory used in sort:       0.61 MW

 SORT1 READ      562034. AND WROTE       51497. INTEGRALS IN      1 RECORDS. CPU TIME:     0.02 SEC, REAL TIME:     0.11 SEC
 SORT2 READ      366867. AND WROTE      396151. INTEGRALS IN     14 RECORDS. CPU TIME:     0.01 SEC, REAL TIME:     0.01 SEC

 Node minimum:       55303.  Node maximum:       57357. integrals

 OPERATOR DM      FOR CENTER  0  COORDINATES:    0.000000    0.000000    0.000000


 **********************************************************************************************************************************
 DATASETS  * FILE   NREC   LENGTH (MB)   RECORD NAMES
              1      18        6.10       500      610      700      900      950      970     1000      129      960     1100   
                                          VAR    BASINP    GEOM    SYMINP    ZMAT    AOBASIS   BASIS     P2S    ABASIS      S 
                                         1400     1410     1200     1210     1080     1600     1650     1700   
                                           T        V       H0       H01     AOSYM     SMH    MOLCAS    OPER   

 PROGRAMS   *        TOTAL       INT
 CPU TIMES  *         0.30      0.21
 REAL TIME  *         1.80 SEC
 DISK USED  *        31.35 MB      
 GA USED    *         0.00 MB       (max)       0.00 MB       (current)
 **********************************************************************************************************************************

1PROGRAM * RHF-SCF (CLOSED SHELL)       Authors: W. Meyer, H.-J. Werner


 NUMBER OF ELECTRONS:       5+    5-    SPACE SYMMETRY=1    SPIN SYMMETRY: Singlet 
 CONVERGENCE THRESHOLDS:    1.00E-05 (Density)    1.00E-07 (Energy)
 MAX. NUMBER OF ITERATIONS:       60
 INTERPOLATION TYPE:            DIIS
 INTERPOLATION STEPS:              2 (START)      1 (STEP)
 LEVEL SHIFTS:                 -1.00 (CLOSED) -0.50 (OPEN) 



 Orbital guess generated from atomic densities. Full valence occupancy:    4   1   2   0

 Molecular orbital dump at record        2100.2

 ITERATION    DDIFF          GRAD             ENERGY        2-EL.EN.            DIPOLE MOMENTS         DIIS   ORB.
    1      0.000D+00      0.000D+00       -75.19209061     77.460523    0.00000    0.00000    3.94592    0    start
    2      0.000D+00      0.521D-01       -75.47041094     68.635663    0.00000    0.00000    2.68367    1    diag
    3      0.457D-01      0.209D-01       -75.50772146     68.512823    0.00000    0.00000    2.30070    2    diag
    4      0.110D-01      0.121D-01       -75.54131119     67.596668    0.00000    0.00000    1.68815    3    diag
    5      0.130D-01      0.709D-02       -75.55772001     66.842296    0.00000    0.00000    1.09783    4    diag
    6      0.147D-01      0.226D-02       -75.55913925     66.683877    0.00000    0.00000    0.94289    5    diag
    7      0.463D-02      0.738D-03       -75.55925952     66.655512    0.00000    0.00000    0.93145    6    diag
    8      0.142D-02      0.145D-03       -75.55926404     66.642510    0.00000    0.00000    0.92618    7    diag
    9      0.284D-03      0.624D-04       -75.55926517     66.649066    0.00000    0.00000    0.92940    8    diag
   10      0.101D-03      0.439D-04       -75.55926572     66.645397    0.00000    0.00000    0.92745    9    orth
   11      0.501D-04      0.405D-04       -75.55926663     66.645678    0.00000    0.00000    0.92747    9    diag
   12      0.681D-04      0.404D-04       -75.55926675     66.645364    0.00000    0.00000    0.92724    9    diag
   13      0.100D-04      0.404D-04       -75.55926393     66.645745    0.00000    0.00000    0.92776    9    diag
   14      0.208D-03      0.398D-04       -75.55922536     66.651951    0.00000    0.00000    0.93519    9    diag
   15      0.314D-02      0.359D-04       -75.55920011     66.655352    0.00000    0.00000    0.93941    9    diag
   16      0.224D-02      0.374D-04       -75.55922151     66.651942    0.00000    0.00000    0.93576    9    diag
   17      0.191D-02      0.376D-04       -75.55899019     66.650685    0.00000    0.00000    0.94475    9    diag
   18      0.128D-01      0.182D-03       -75.55916843     66.654603    0.00000    0.00000    0.94210    9    diag
   19      0.825D-02      0.668D-04       -75.55923570     66.646010    0.00000    0.00000    0.93209    9    fixocc
   20      0.579D-02      0.599D-04       -75.55951445     66.594889    0.00000    0.00000    0.88152    9    orth
   21      0.143D-01      0.249D-03       -75.55906079     66.647029    0.00000    0.00000    0.94362    9    diag
   22      0.259D-01      0.193D-03       -75.55894936     66.644538    0.00000    0.00000    0.94300    9    diag
   23      0.346D-02      0.243D-03       -75.55928493     66.636562    0.00000    0.00000    0.92227    9    diag
   24      0.188D-01      0.777D-04       -75.55920068     66.652612    0.00000    0.00000    0.93856    9    diag
   25      0.683D-02      0.516D-04       -75.55904626     66.649400    0.00000    0.00000    0.94445    9    diag
   26      0.911D-02      0.178D-03       -75.55925874     66.641358    0.00000    0.00000    0.92749    9    diag
   27      0.141D-01      0.723D-04       -75.55920126     66.652606    0.00000    0.00000    0.93851    9    diag
   28      0.491D-02      0.516D-04       -75.55906842     66.650325    0.00000    0.00000    0.94452    9    diag
   29      0.832D-02      0.162D-03       -75.55926481     66.640447    0.00000    0.00000    0.92637    9    diag
   30      0.137D-01      0.733D-04       -75.55912508     66.655836    0.00000    0.00000    0.94484    9    orth
   31      0.110D-01      0.927D-04       -75.55921701     66.649611    0.00000    0.00000    0.93568    9    diag
   32      0.706D-02      0.558D-04       -75.55941547     66.610419    0.00000    0.00000    0.89769    9    diag
   33      0.122D-01      0.184D-03       -75.55921513     66.644489    0.00000    0.00000    0.93447    9    diag
   34      0.123D-01      0.102D-03       -75.55885341     66.636520    0.00000    0.00000    0.94002    9    diag
   35      0.154D-01      0.321D-03       -75.55931488     66.630767    0.00000    0.00000    0.91649    9    diag
   36      0.227D-01      0.967D-04       -75.55909551     66.654411    0.00000    0.00000    0.94521    9    diag
   37      0.158D-01      0.119D-03       -75.55915706     66.654873    0.00000    0.00000    0.94304    9    diag
   38      0.359D-02      0.768D-04       -75.55927916     66.637065    0.00000    0.00000    0.92328    9    diag
   39      0.998D-02      0.819D-04       -75.55915144     66.656409    0.00000    0.00000    0.94383    9    diag
   40      0.104D-01      0.706D-04       -75.55928898     66.635249    0.00000    0.00000    0.92136    9    orth


 ?APPARENTLY NO CONVERGENCE, EXIT AFTER THREE FURTHER ITERATIONS


   41      0.110D-01      0.878D-04       -75.55921339     66.649771    0.00000    0.00000    0.93620    9    diag
   42      0.597D-02      0.590D-04       -75.55908436     66.649758    0.00000    0.00000    0.94410    9    orth
   43      0.872D-02      0.161D-03       -75.55908749     66.663489    0.00000    0.00000    0.94659    0    orth

 Final occupancy:   3   1   1   0

 !RHF STATE 1.1 Energy                -75.559087485854
 Nuclear energy                         4.17437142
 One-electron energy                 -113.06520348
 Two-electron energy                   33.33174457
 Virial quotient                       -1.00816558
 !RHF STATE 1.1 Dipole moment           0.00000000     0.00000000     0.94658723
 Dipole moment /Debye                   0.00000000     0.00000000     2.40582716

 ELECTRON ORBITALS
 =================


   Orb  Occ    Energy  Couls-En    Coefficients

                                   1 1s      1 1s      1 1s      1 1s      1 2pz     1 2pz     1 2pz     1 3d0     1 3d2+    1 3d0  
                                   1 3d2+    1 4f0     1 4f2+    2 1s      2 1s      2 1s      2 2pz     2 2py     2 2pz     2 2py  
                                   2 3d0     2 3d2+    2 3d1- 

   1.1   2   -20.6620  -53.0883  1.000121 -0.000487 -0.000410  0.000714  0.002238 -0.001687 -0.000269 -0.000039  0.000280  0.000002
                                 0.000114 -0.000011 -0.000024  0.000187 -0.000045 -0.000420 -0.000039 -0.000076  0.000163  0.000272
                                 0.000007  0.000044 -0.000056

   2.1   2    -1.1989   -8.6705 -0.004788  0.978588  0.005280  0.009807 -0.016141  0.002913  0.005617 -0.000168  0.000842  0.000245
                                 0.000715 -0.000172 -0.000340  0.047793  0.000378 -0.002139 -0.000059 -0.000052 -0.005423 -0.007231
                                 0.000028 -0.000536  0.000814

   3.1   2    -0.4353   -5.8960 -0.005735 -0.105047 -0.002370  0.002292  0.758796 -0.005935  0.074343  0.001336 -0.000350  0.004760
                                -0.007973 -0.000096 -0.003367  0.426776 -0.014758  0.064600  0.000019  0.001053 -0.007015 -0.023248
                                -0.000287 -0.001285  0.001303

   4.1   0    -0.0814   -3.7767  0.006278 -0.114135 -0.006314 -0.107506 -0.529277  0.018616 -0.115466 -0.000643 -0.000678 -0.001353
                                -0.005665 -0.000445  0.001107  0.717762 -0.082948  0.289653  0.001222 -0.000275  0.011260  0.032220
                                 0.000795  0.000147  0.000344

   5.1   0     0.3668   -1.5419  0.031442  0.048391 -0.015293 -0.359711  0.066854  0.043994 -0.213340  0.000325 -0.002859 -0.001353
                                 0.030775  0.001320  0.002389 -0.465624 -1.137953  1.695785 -0.005123  0.003800  0.044916 -0.021500
                                -0.000797 -0.001412  0.000011

   6.1   0     0.6985   -1.7164  0.025156  0.123997 -0.009110 -0.109507 -0.332626 -0.205635  0.605705 -0.004744 -0.002525  0.058002
                                 0.036112  0.002122  0.001516  0.051979 -0.048219 -0.103181 -0.071198  0.045361  0.707739 -0.553327
                                -0.000148  0.004602 -0.006823

   7.1   0     0.7306   -2.0244  0.182893  0.984034 -0.055768 -0.902290  0.244578  0.005676 -0.094810 -0.000336 -0.000622  0.002174
                                 0.053925  0.001598  0.002288  0.019312  0.092723 -0.051513 -0.048943 -0.046345  0.616372  0.610935
                                -0.000135 -0.003548  0.005562

   8.1   0     0.8986   -2.5203  0.184065  0.874871 -0.062300 -0.926386 -0.532629 -0.394820  1.232477  0.001362 -0.000502 -0.045256
                                 0.001403 -0.000819  0.002412 -0.114144 -0.156646  0.150256  0.018227 -0.045064 -0.347663  0.411396
                                -0.011907  0.000217 -0.013429

   9.1   0     1.3536   -1.8919 -0.463981 -2.128708  0.115033  2.557594 -0.199624 -0.190806  0.758927  0.000660 -0.003971 -0.046940
                                 0.236319  0.002431  0.006916 -0.369565  0.334160 -0.394453 -0.022278 -0.031807  0.362091  0.666078
                                -0.013532 -0.028103  0.029249

                                   1 2px     1 2px     1 2px     1 3d1+    1 3d1+    1 4f1+    1 4f3+    2 2px     2 2px     2 3d1+ 
                                   2 3d2- 

   1.2   2    -0.5152   -7.2846  0.994698 -0.018706  0.029741  0.001402  0.003405  0.001251 -0.003956 -0.000917  0.011517 -0.000573
                                -0.000747

   2.2   0     0.6805   -2.0224 -0.408521 -0.254766  0.785739 -0.003253  0.036934  0.000571 -0.001117 -0.073114  0.789362 -0.000423
                                -0.000637

   3.2   0     0.8925   -2.0444  0.509977  0.360683 -1.200289 -0.001340  0.041246  0.001384 -0.003753 -0.056147  0.713458  0.010787
                                 0.013751

   4.2   0     1.7738   -1.8735 -0.021171  0.003657  0.025430 -0.014351  1.004697  0.002710  0.000303 -0.018716 -0.086855 -0.018718
                                -0.032119

   5.2   0     3.3799    4.0969 -0.014652  0.011044  0.007264 -0.001257 -0.003612  0.001198  0.001504 -0.000180 -0.000490  0.817964
                                -0.575239

   6.2   0     3.3989    3.9556 -0.325379  0.247024  0.157356  0.014234  0.043802 -0.003145  0.009315 -0.022004 -0.008318  0.571706
                                 0.813478

   7.2   0     3.8067    4.6973 -0.565879  0.487728  0.186080  0.013707  0.039149 -0.005260  0.015661  1.244840 -0.699016 -0.000515
                                 0.000221

                                   1 2py     1 2py     1 2py     1 3d1-    1 3d1-    1 4f1-    1 4f3-    2 1s      2 1s      2 1s   
                                   2 2py     2 2pz     2 2py     2 2pz     2 3d1-    2 3d0     2 3d2+ 

   1.3   2    -0.3895   -4.7941  0.557516  0.001734  0.078062  0.001839  0.017963  0.000152 -0.002936  0.600721 -0.021527  0.113534
                                 0.001067  0.001283 -0.017606 -0.021292  0.002041  0.000543 -0.001045

   2.3   0    -0.0143   -4.4975 -0.675912  0.022756 -0.197262  0.000166  0.002635  0.000911  0.002651  0.620161 -0.084636  0.318344
                                 0.001408 -0.000582  0.030616  0.039293  0.000405 -0.000510 -0.000647

   3.3   0     0.3925   -1.3847  0.072070  0.035654 -0.241999  0.004609 -0.049504 -0.001961  0.001021 -0.402350 -1.233188  1.892275
                                -0.011815  0.000195  0.113545  0.012906  0.001894  0.000731  0.000311

   4.3   0     0.7296   -1.6640 -0.363735 -0.182087  0.538050  0.000856 -0.003974 -0.003248 -0.000706  0.049816 -0.080978 -0.087778
                                -0.042308  0.067629  0.374914 -0.835129 -0.009887 -0.003538  0.003784

   5.3   0     0.7970   -1.7632  0.429668  0.114761 -0.380057 -0.000065 -0.077829 -0.003917 -0.001288  0.144231  0.285937 -0.464781
                                -0.064717  0.002053  0.904943  0.079380  0.007503 -0.002903 -0.008581

   6.3   0     1.0615   -1.9519 -0.462744 -0.483754  1.552655  0.004099 -0.201370 -0.001908  0.004687  0.003805  0.044943 -0.542477
                                -0.047846 -0.060018  0.451798  0.729948 -0.001523  0.015029  0.011203

   7.3   0     1.8708   -1.1355 -0.192994 -0.034954  0.468351 -0.010171  0.931477  0.001194  0.001506 -1.687832  1.275244  0.220223
                                 0.022596  0.011238  0.358156  0.276969  0.114024  0.005067 -0.074193

                                   1 3d2-    1 3d2-    1 4f2-    2 2px     2 2px     2 3d2-    2 3d1+ 

   1.4   0     0.7393   -1.0614 -0.004329  0.066351  0.004301 -0.095008  1.050041  0.003960  0.002774

   2.4   0     1.7707   -1.8651 -0.015111  1.003883  0.001770 -0.023421 -0.106826 -0.033970 -0.031054

   3.4   0     3.3799    4.0971  0.001321  0.003818  0.000589 -0.001564  0.000728 -0.619219  0.785209

   4.4   0     3.3888    4.0097  0.018912  0.057210 -0.012432  0.011710 -0.017266  0.784242  0.618262

   5.4   0     3.8003    4.8666  0.018444  0.050570 -0.021136  1.264153 -0.706432 -0.008721 -0.005412

   6.4   0     5.5670    4.5244  0.014296 -0.005979  0.999764  0.039975 -0.040592  0.012155  0.008699

 HOMO      1.3    -0.389467 =     -10.5979eV
 LUMO      4.1    -0.081409 =      -2.2153eV
 LUMO-HOMO         0.308057 =       8.3827eV

 No convergence



 **********************************************************************************************************************************
 DATASETS  * FILE   NREC   LENGTH (MB)   RECORD NAMES
              1      18        6.10       500      610      700      900      950      970     1000      129      960     1100   
                                          VAR    BASINP    GEOM    SYMINP    ZMAT    AOBASIS   BASIS     P2S    ABASIS      S 
                                         1400     1410     1200     1210     1080     1600     1650     1700   
                                           T        V       H0       H01     AOSYM     SMH    MOLCAS    OPER   

              2       4        0.33       700     1000      520     2100   
                                         GEOM     BASIS   MCVARS     RHF  

 PROGRAMS   *        TOTAL       RHF       INT
 CPU TIMES  *         0.35      0.05      0.21
 REAL TIME  *         4.13 SEC
 DISK USED  *        77.20 MB      
 SF USED    *         0.00 MB      
 GA USED    *         0.00 MB       (max)       0.00 MB       (current)
 **********************************************************************************************************************************

1PROGRAM * FCI (Full CI)     Author: P.J. Knowles, 1984

 ***  Initialisation ***
 
 Molecular orbitals read from record     2100.2  Type=RHF/CANONICAL (state 1.1)

 ?Error: RHF not converged. This error exit can be avoided using the IGNORE_ERROR option on the ORBITAL directive

 GLOBAL ERROR fehler on processor   0                                         
