 &FCI NORB=  4,NELEC=  4,MS2= 0,
  ORBSYM=1,1,3,3,
  ISYM=1,
 /
  0.4645069647559060E+00   1   1   1   1
 -0.1183379524401514E+00   2   1   1   1
  0.1262994249489357E+00   2   1   2   1
  0.3878736702869543E+00   2   2   1   1
 -0.6205918894093831E-01   2   2   2   1
  0.3550709445880769E+00   2   2   2   2
  0.4312838482311185E+00   3   3   1   1
 -0.8984076836622579E-01   3   3   2   1
  0.3738657830870871E+00   3   3   2   2
  0.4560908523119892E+00   3   3   3   3
 -0.1035198929644424E+00   4   3   1   1
  0.1143441675433407E+00   4   3   2   1
 -0.5113386956689379E-01   4   3   2   2
 -0.1149912530262592E+00   4   3   3   3
  0.1359411144307021E+00   4   3   4   3
  0.3747204495570470E+00   4   4   1   1
 -0.4545953102621092E-01   4   4   2   1
  0.3439581361266968E+00   4   4   2   2
  0.3902644475257547E+00   4   4   3   3
 -0.6225448688836323E-01   4   4   4   3
  0.3601014802102515E+00   4   4   4   4
  0.5234460562776275E-01   3   1   3   1
  0.2865816636668256E-01   3   2   3   1
  0.4966757954155630E-01   3   2   3   2
  0.2689888151005148E-01   4   1   3   1
  0.4723086428138407E-01   4   1   3   2
  0.4883611235872858E-01   4   1   4   1
  0.5645729531947698E-01   4   2   3   1
  0.4590435069763236E-01   4   2   3   2
  0.4630797303636940E-01   4   2   4   1
  0.7697781672325681E-01   4   2   4   2
 -0.1699891968419433E+01   1   1   0   0
  0.3266774688605884E+00   2   1   0   0
 -0.1381201763831037E+01   2   2   0   0
 -0.1704079821449928E+01   3   3   0   0
  0.3489289800398406E+00   4   3   0   0
 -0.1349152675853964E+01   4   4   0   0
 -0.7135879192272836E+02   0   0   0   0
