 &FCI NORB=  4,NELEC=  4,MS2= 0, 
   ORBSYM=1,1,1,1,
   ISYM=1,
  /
 +4.6450696475590603e-01   1   1   1   1 
 -1.1833795244015140e-01   1   1   1   2 
 +0.0000000000000000e+00   1   1   1   3 
 +0.0000000000000000e+00   1   1   1   4 
 -1.1833795244015140e-01   1   1   2   1 
 +3.8787367028695430e-01   1   1   2   2 
 +0.0000000000000000e+00   1   1   2   3 
 +0.0000000000000000e+00   1   1   2   4 
 +0.0000000000000000e+00   1   1   3   1 
 +0.0000000000000000e+00   1   1   3   2 
 +4.3128384823111848e-01   1   1   3   3 
 -1.0351989296444240e-01   1   1   3   4 
 +0.0000000000000000e+00   1   1   4   1 
 +0.0000000000000000e+00   1   1   4   2 
 -1.0351989296444240e-01   1   1   4   3 
 +3.7472044955704698e-01   1   1   4   4 
 -1.1833795244015140e-01   1   2   1   1 
 +1.2629942494893570e-01   1   2   1   2 
 +0.0000000000000000e+00   1   2   1   3 
 +0.0000000000000000e+00   1   2   1   4 
 +1.2629942494893570e-01   1   2   2   1 
 -6.2059188940938308e-02   1   2   2   2 
 +0.0000000000000000e+00   1   2   2   3 
 +0.0000000000000000e+00   1   2   2   4 
 +0.0000000000000000e+00   1   2   3   1 
 +0.0000000000000000e+00   1   2   3   2 
 -8.9840768366225787e-02   1   2   3   3 
 +1.1434416754334070e-01   1   2   3   4 
 +0.0000000000000000e+00   1   2   4   1 
 +0.0000000000000000e+00   1   2   4   2 
 +1.1434416754334070e-01   1   2   4   3 
 -4.5459531026210920e-02   1   2   4   4 
 +0.0000000000000000e+00   1   3   1   1 
 +0.0000000000000000e+00   1   3   1   2 
 +5.2344605627762747e-02   1   3   1   3 
 +2.6898881510051480e-02   1   3   1   4 
 +0.0000000000000000e+00   1   3   2   1 
 +0.0000000000000000e+00   1   3   2   2 
 +2.8658166366682562e-02   1   3   2   3 
 +5.6457295319476977e-02   1   3   2   4 
 +5.2344605627762747e-02   1   3   3   1 
 +2.8658166366682562e-02   1   3   3   2 
 +0.0000000000000000e+00   1   3   3   3 
 +0.0000000000000000e+00   1   3   3   4 
 +2.6898881510051480e-02   1   3   4   1 
 +5.6457295319476977e-02   1   3   4   2 
 +0.0000000000000000e+00   1   3   4   3 
 +0.0000000000000000e+00   1   3   4   4 
 +0.0000000000000000e+00   1   4   1   1 
 +0.0000000000000000e+00   1   4   1   2 
 +2.6898881510051480e-02   1   4   1   3 
 +4.8836112358728583e-02   1   4   1   4 
 +0.0000000000000000e+00   1   4   2   1 
 +0.0000000000000000e+00   1   4   2   2 
 +4.7230864281384073e-02   1   4   2   3 
 +4.6307973036369403e-02   1   4   2   4 
 +2.6898881510051480e-02   1   4   3   1 
 +4.7230864281384073e-02   1   4   3   2 
 +0.0000000000000000e+00   1   4   3   3 
 +0.0000000000000000e+00   1   4   3   4 
 +4.8836112358728583e-02   1   4   4   1 
 +4.6307973036369403e-02   1   4   4   2 
 +0.0000000000000000e+00   1   4   4   3 
 +0.0000000000000000e+00   1   4   4   4 
 -1.1833795244015140e-01   2   1   1   1 
 +1.2629942494893570e-01   2   1   1   2 
 +0.0000000000000000e+00   2   1   1   3 
 +0.0000000000000000e+00   2   1   1   4 
 +1.2629942494893570e-01   2   1   2   1 
 -6.2059188940938308e-02   2   1   2   2 
 +0.0000000000000000e+00   2   1   2   3 
 +0.0000000000000000e+00   2   1   2   4 
 +0.0000000000000000e+00   2   1   3   1 
 +0.0000000000000000e+00   2   1   3   2 
 -8.9840768366225787e-02   2   1   3   3 
 +1.1434416754334070e-01   2   1   3   4 
 +0.0000000000000000e+00   2   1   4   1 
 +0.0000000000000000e+00   2   1   4   2 
 +1.1434416754334070e-01   2   1   4   3 
 -4.5459531026210920e-02   2   1   4   4 
 +3.8787367028695430e-01   2   2   1   1 
 -6.2059188940938308e-02   2   2   1   2 
 +0.0000000000000000e+00   2   2   1   3 
 +0.0000000000000000e+00   2   2   1   4 
 -6.2059188940938308e-02   2   2   2   1 
 +3.5507094458807692e-01   2   2   2   2 
 +0.0000000000000000e+00   2   2   2   3 
 +0.0000000000000000e+00   2   2   2   4 
 +0.0000000000000000e+00   2   2   3   1 
 +0.0000000000000000e+00   2   2   3   2 
 +3.7386578308708712e-01   2   2   3   3 
 -5.1133869566893787e-02   2   2   3   4 
 +0.0000000000000000e+00   2   2   4   1 
 +0.0000000000000000e+00   2   2   4   2 
 -5.1133869566893787e-02   2   2   4   3 
 +3.4395813612669679e-01   2   2   4   4 
 +0.0000000000000000e+00   2   3   1   1 
 +0.0000000000000000e+00   2   3   1   2 
 +2.8658166366682562e-02   2   3   1   3 
 +4.7230864281384073e-02   2   3   1   4 
 +0.0000000000000000e+00   2   3   2   1 
 +0.0000000000000000e+00   2   3   2   2 
 +4.9667579541556303e-02   2   3   2   3 
 +4.5904350697632358e-02   2   3   2   4 
 +2.8658166366682562e-02   2   3   3   1 
 +4.9667579541556303e-02   2   3   3   2 
 +0.0000000000000000e+00   2   3   3   3 
 +0.0000000000000000e+00   2   3   3   4 
 +4.7230864281384073e-02   2   3   4   1 
 +4.5904350697632358e-02   2   3   4   2 
 +0.0000000000000000e+00   2   3   4   3 
 +0.0000000000000000e+00   2   3   4   4 
 +0.0000000000000000e+00   2   4   1   1 
 +0.0000000000000000e+00   2   4   1   2 
 +5.6457295319476977e-02   2   4   1   3 
 +4.6307973036369403e-02   2   4   1   4 
 +0.0000000000000000e+00   2   4   2   1 
 +0.0000000000000000e+00   2   4   2   2 
 +4.5904350697632358e-02   2   4   2   3 
 +7.6977816723256806e-02   2   4   2   4 
 +5.6457295319476977e-02   2   4   3   1 
 +4.5904350697632358e-02   2   4   3   2 
 +0.0000000000000000e+00   2   4   3   3 
 +0.0000000000000000e+00   2   4   3   4 
 +4.6307973036369403e-02   2   4   4   1 
 +7.6977816723256806e-02   2   4   4   2 
 +0.0000000000000000e+00   2   4   4   3 
 +0.0000000000000000e+00   2   4   4   4 
 +0.0000000000000000e+00   3   1   1   1 
 +0.0000000000000000e+00   3   1   1   2 
 +5.2344605627762747e-02   3   1   1   3 
 +2.6898881510051480e-02   3   1   1   4 
 +0.0000000000000000e+00   3   1   2   1 
 +0.0000000000000000e+00   3   1   2   2 
 +2.8658166366682562e-02   3   1   2   3 
 +5.6457295319476977e-02   3   1   2   4 
 +5.2344605627762747e-02   3   1   3   1 
 +2.8658166366682562e-02   3   1   3   2 
 +0.0000000000000000e+00   3   1   3   3 
 +0.0000000000000000e+00   3   1   3   4 
 +2.6898881510051480e-02   3   1   4   1 
 +5.6457295319476977e-02   3   1   4   2 
 +0.0000000000000000e+00   3   1   4   3 
 +0.0000000000000000e+00   3   1   4   4 
 +0.0000000000000000e+00   3   2   1   1 
 +0.0000000000000000e+00   3   2   1   2 
 +2.8658166366682562e-02   3   2   1   3 
 +4.7230864281384073e-02   3   2   1   4 
 +0.0000000000000000e+00   3   2   2   1 
 +0.0000000000000000e+00   3   2   2   2 
 +4.9667579541556303e-02   3   2   2   3 
 +4.5904350697632358e-02   3   2   2   4 
 +2.8658166366682562e-02   3   2   3   1 
 +4.9667579541556303e-02   3   2   3   2 
 +0.0000000000000000e+00   3   2   3   3 
 +0.0000000000000000e+00   3   2   3   4 
 +4.7230864281384073e-02   3   2   4   1 
 +4.5904350697632358e-02   3   2   4   2 
 +0.0000000000000000e+00   3   2   4   3 
 +0.0000000000000000e+00   3   2   4   4 
 +4.3128384823111848e-01   3   3   1   1 
 -8.9840768366225787e-02   3   3   1   2 
 +0.0000000000000000e+00   3   3   1   3 
 +0.0000000000000000e+00   3   3   1   4 
 -8.9840768366225787e-02   3   3   2   1 
 +3.7386578308708712e-01   3   3   2   2 
 +0.0000000000000000e+00   3   3   2   3 
 +0.0000000000000000e+00   3   3   2   4 
 +0.0000000000000000e+00   3   3   3   1 
 +0.0000000000000000e+00   3   3   3   2 
 +4.5609085231198920e-01   3   3   3   3 
 -1.1499125302625920e-01   3   3   3   4 
 +0.0000000000000000e+00   3   3   4   1 
 +0.0000000000000000e+00   3   3   4   2 
 -1.1499125302625920e-01   3   3   4   3 
 +3.9026444752575468e-01   3   3   4   4 
 -1.0351989296444240e-01   3   4   1   1 
 +1.1434416754334070e-01   3   4   1   2 
 +0.0000000000000000e+00   3   4   1   3 
 +0.0000000000000000e+00   3   4   1   4 
 +1.1434416754334070e-01   3   4   2   1 
 -5.1133869566893787e-02   3   4   2   2 
 +0.0000000000000000e+00   3   4   2   3 
 +0.0000000000000000e+00   3   4   2   4 
 +0.0000000000000000e+00   3   4   3   1 
 +0.0000000000000000e+00   3   4   3   2 
 -1.1499125302625920e-01   3   4   3   3 
 +1.3594111443070209e-01   3   4   3   4 
 +0.0000000000000000e+00   3   4   4   1 
 +0.0000000000000000e+00   3   4   4   2 
 +1.3594111443070209e-01   3   4   4   3 
 -6.2254486888363228e-02   3   4   4   4 
 +0.0000000000000000e+00   4   1   1   1 
 +0.0000000000000000e+00   4   1   1   2 
 +2.6898881510051480e-02   4   1   1   3 
 +4.8836112358728583e-02   4   1   1   4 
 +0.0000000000000000e+00   4   1   2   1 
 +0.0000000000000000e+00   4   1   2   2 
 +4.7230864281384073e-02   4   1   2   3 
 +4.6307973036369403e-02   4   1   2   4 
 +2.6898881510051480e-02   4   1   3   1 
 +4.7230864281384073e-02   4   1   3   2 
 +0.0000000000000000e+00   4   1   3   3 
 +0.0000000000000000e+00   4   1   3   4 
 +4.8836112358728583e-02   4   1   4   1 
 +4.6307973036369403e-02   4   1   4   2 
 +0.0000000000000000e+00   4   1   4   3 
 +0.0000000000000000e+00   4   1   4   4 
 +0.0000000000000000e+00   4   2   1   1 
 +0.0000000000000000e+00   4   2   1   2 
 +5.6457295319476977e-02   4   2   1   3 
 +4.6307973036369403e-02   4   2   1   4 
 +0.0000000000000000e+00   4   2   2   1 
 +0.0000000000000000e+00   4   2   2   2 
 +4.5904350697632358e-02   4   2   2   3 
 +7.6977816723256806e-02   4   2   2   4 
 +5.6457295319476977e-02   4   2   3   1 
 +4.5904350697632358e-02   4   2   3   2 
 +0.0000000000000000e+00   4   2   3   3 
 +0.0000000000000000e+00   4   2   3   4 
 +4.6307973036369403e-02   4   2   4   1 
 +7.6977816723256806e-02   4   2   4   2 
 +0.0000000000000000e+00   4   2   4   3 
 +0.0000000000000000e+00   4   2   4   4 
 -1.0351989296444240e-01   4   3   1   1 
 +1.1434416754334070e-01   4   3   1   2 
 +0.0000000000000000e+00   4   3   1   3 
 +0.0000000000000000e+00   4   3   1   4 
 +1.1434416754334070e-01   4   3   2   1 
 -5.1133869566893787e-02   4   3   2   2 
 +0.0000000000000000e+00   4   3   2   3 
 +0.0000000000000000e+00   4   3   2   4 
 +0.0000000000000000e+00   4   3   3   1 
 +0.0000000000000000e+00   4   3   3   2 
 -1.1499125302625920e-01   4   3   3   3 
 +1.3594111443070209e-01   4   3   3   4 
 +0.0000000000000000e+00   4   3   4   1 
 +0.0000000000000000e+00   4   3   4   2 
 +1.3594111443070209e-01   4   3   4   3 
 -6.2254486888363228e-02   4   3   4   4 
 +3.7472044955704698e-01   4   4   1   1 
 -4.5459531026210920e-02   4   4   1   2 
 +0.0000000000000000e+00   4   4   1   3 
 +0.0000000000000000e+00   4   4   1   4 
 -4.5459531026210920e-02   4   4   2   1 
 +3.4395813612669679e-01   4   4   2   2 
 +0.0000000000000000e+00   4   4   2   3 
 +0.0000000000000000e+00   4   4   2   4 
 +0.0000000000000000e+00   4   4   3   1 
 +0.0000000000000000e+00   4   4   3   2 
 +3.9026444752575468e-01   4   4   3   3 
 -6.2254486888363228e-02   4   4   3   4 
 +0.0000000000000000e+00   4   4   4   1 
 +0.0000000000000000e+00   4   4   4   2 
 -6.2254486888363228e-02   4   4   4   3 
 +3.6010148021025151e-01   4   4   4   4 
 -1.6998919684194329e+00   1   1   0   0 
 +3.2667746886058840e-01   1   2   0   0 
 +0.0000000000000000e+00   1   3   0   0 
 +0.0000000000000000e+00   1   4   0   0 
 +3.2667746886058840e-01   2   1   0   0 
 -1.3812017638310370e+00   2   2   0   0 
 +0.0000000000000000e+00   2   3   0   0 
 +0.0000000000000000e+00   2   4   0   0 
 +0.0000000000000000e+00   3   1   0   0 
 +0.0000000000000000e+00   3   2   0   0 
 -1.7040798214499280e+00   3   3   0   0 
 +3.4892898003984057e-01   3   4   0   0 
 +0.0000000000000000e+00   4   1   0   0 
 +0.0000000000000000e+00   4   2   0   0 
 +3.4892898003984057e-01   4   3   0   0 
 -1.3491526758539640e+00   4   4   0   0 
 -7.1358791922728358e+01   0   0   0   0 
