 &FCI NORB=  4,NELEC=  4,MS2= 0,
  ORBSYM=1,1,3,3,
  ISYM=1,
 /
  0.4096384564086405E+00   1   1   1   1
 -0.1221836863963757E+00   2   1   1   1
  0.1540614720616447E+00   2   1   2   1
  0.3652966631445207E+00   2   2   1   1
 -0.7099220113062152E-01   2   2   2   1
  0.3446758548416927E+00   2   2   2   2
  0.3809672370679760E+00   3   3   1   1
 -0.9485546907497326E-01   3   3   2   1
  0.3467745544501177E+00   3   3   2   2
  0.3997962307052283E+00   3   3   3   3
 -0.1036192920746965E+00   4   3   1   1
  0.1385126806118718E+00   4   3   2   1
 -0.5639239024752471E-01   4   3   2   2
 -0.1156606435283967E+00   4   3   3   3
  0.1575907977577121E+00   4   3   4   3
  0.3516719904176915E+00   4   4   1   1
 -0.5652523501034337E-01   4   4   2   1
  0.3339345131785389E+00   4   4   2   2
  0.3666162624508139E+00   4   4   3   3
 -0.7241554271293262E-01   4   4   4   3
  0.3513364280956186E+00   4   4   4   4
  0.5183054515213957E-01   3   1   3   1
  0.3349603355758345E-01   3   2   3   1
  0.5657946712568063E-01   3   2   3   2
  0.3141502309118885E-01   4   1   3   1
  0.5482331034287776E-01   4   1   3   2
  0.5426813059789382E-01   4   1   4   1
  0.6120760799730093E-01   4   2   3   1
  0.5209439402399783E-01   4   2   3   2
  0.5048750279439106E-01   4   2   4   1
  0.8104532782566572E-01   4   2   4   2
 -0.1497932457132964E+01   1   1   0   0
  0.3453904646892312E+00   2   1   0   0
 -0.1317117568773602E+01   2   2   0   0
 -0.1489634772864172E+01   3   3   0   0
  0.3543150848651607E+00   4   3   0   0
 -0.1312730070250731E+01   4   4   0   0
 -0.7171045180609732E+02   0   0   0   0
