 &FCI NORB=  4,NELEC=  4,MS2= 0, 
   ORBSYM=1,1,1,1,
   ISYM=1,
  /
 +4.0963845640864049e-01   1   1   1   1 
 -1.2218368639637570e-01   1   1   1   2 
 +0.0000000000000000e+00   1   1   1   3 
 +0.0000000000000000e+00   1   1   1   4 
 -1.2218368639637570e-01   1   1   2   1 
 +3.6529666314452069e-01   1   1   2   2 
 +0.0000000000000000e+00   1   1   2   3 
 +0.0000000000000000e+00   1   1   2   4 
 +0.0000000000000000e+00   1   1   3   1 
 +0.0000000000000000e+00   1   1   3   2 
 +3.8096723706797597e-01   1   1   3   3 
 -1.0361929207469650e-01   1   1   3   4 
 +0.0000000000000000e+00   1   1   4   1 
 +0.0000000000000000e+00   1   1   4   2 
 -1.0361929207469650e-01   1   1   4   3 
 +3.5167199041769148e-01   1   1   4   4 
 -1.2218368639637570e-01   1   2   1   1 
 +1.5406147206164469e-01   1   2   1   2 
 +0.0000000000000000e+00   1   2   1   3 
 +0.0000000000000000e+00   1   2   1   4 
 +1.5406147206164469e-01   1   2   2   1 
 -7.0992201130621518e-02   1   2   2   2 
 +0.0000000000000000e+00   1   2   2   3 
 +0.0000000000000000e+00   1   2   2   4 
 +0.0000000000000000e+00   1   2   3   1 
 +0.0000000000000000e+00   1   2   3   2 
 -9.4855469074973262e-02   1   2   3   3 
 +1.3851268061187180e-01   1   2   3   4 
 +0.0000000000000000e+00   1   2   4   1 
 +0.0000000000000000e+00   1   2   4   2 
 +1.3851268061187180e-01   1   2   4   3 
 -5.6525235010343372e-02   1   2   4   4 
 +0.0000000000000000e+00   1   3   1   1 
 +0.0000000000000000e+00   1   3   1   2 
 +5.1830545152139570e-02   1   3   1   3 
 +3.1415023091188848e-02   1   3   1   4 
 +0.0000000000000000e+00   1   3   2   1 
 +0.0000000000000000e+00   1   3   2   2 
 +3.3496033557583453e-02   1   3   2   3 
 +6.1207607997300927e-02   1   3   2   4 
 +5.1830545152139570e-02   1   3   3   1 
 +3.3496033557583453e-02   1   3   3   2 
 +0.0000000000000000e+00   1   3   3   3 
 +0.0000000000000000e+00   1   3   3   4 
 +3.1415023091188848e-02   1   3   4   1 
 +6.1207607997300927e-02   1   3   4   2 
 +0.0000000000000000e+00   1   3   4   3 
 +0.0000000000000000e+00   1   3   4   4 
 +0.0000000000000000e+00   1   4   1   1 
 +0.0000000000000000e+00   1   4   1   2 
 +3.1415023091188848e-02   1   4   1   3 
 +5.4268130597893822e-02   1   4   1   4 
 +0.0000000000000000e+00   1   4   2   1 
 +0.0000000000000000e+00   1   4   2   2 
 +5.4823310342877761e-02   1   4   2   3 
 +5.0487502794391063e-02   1   4   2   4 
 +3.1415023091188848e-02   1   4   3   1 
 +5.4823310342877761e-02   1   4   3   2 
 +0.0000000000000000e+00   1   4   3   3 
 +0.0000000000000000e+00   1   4   3   4 
 +5.4268130597893822e-02   1   4   4   1 
 +5.0487502794391063e-02   1   4   4   2 
 +0.0000000000000000e+00   1   4   4   3 
 +0.0000000000000000e+00   1   4   4   4 
 -1.2218368639637570e-01   2   1   1   1 
 +1.5406147206164469e-01   2   1   1   2 
 +0.0000000000000000e+00   2   1   1   3 
 +0.0000000000000000e+00   2   1   1   4 
 +1.5406147206164469e-01   2   1   2   1 
 -7.0992201130621518e-02   2   1   2   2 
 +0.0000000000000000e+00   2   1   2   3 
 +0.0000000000000000e+00   2   1   2   4 
 +0.0000000000000000e+00   2   1   3   1 
 +0.0000000000000000e+00   2   1   3   2 
 -9.4855469074973262e-02   2   1   3   3 
 +1.3851268061187180e-01   2   1   3   4 
 +0.0000000000000000e+00   2   1   4   1 
 +0.0000000000000000e+00   2   1   4   2 
 +1.3851268061187180e-01   2   1   4   3 
 -5.6525235010343372e-02   2   1   4   4 
 +3.6529666314452069e-01   2   2   1   1 
 -7.0992201130621518e-02   2   2   1   2 
 +0.0000000000000000e+00   2   2   1   3 
 +0.0000000000000000e+00   2   2   1   4 
 -7.0992201130621518e-02   2   2   2   1 
 +3.4467585484169272e-01   2   2   2   2 
 +0.0000000000000000e+00   2   2   2   3 
 +0.0000000000000000e+00   2   2   2   4 
 +0.0000000000000000e+00   2   2   3   1 
 +0.0000000000000000e+00   2   2   3   2 
 +3.4677455445011768e-01   2   2   3   3 
 -5.6392390247524710e-02   2   2   3   4 
 +0.0000000000000000e+00   2   2   4   1 
 +0.0000000000000000e+00   2   2   4   2 
 -5.6392390247524710e-02   2   2   4   3 
 +3.3393451317853889e-01   2   2   4   4 
 +0.0000000000000000e+00   2   3   1   1 
 +0.0000000000000000e+00   2   3   1   2 
 +3.3496033557583453e-02   2   3   1   3 
 +5.4823310342877761e-02   2   3   1   4 
 +0.0000000000000000e+00   2   3   2   1 
 +0.0000000000000000e+00   2   3   2   2 
 +5.6579467125680627e-02   2   3   2   3 
 +5.2094394023997827e-02   2   3   2   4 
 +3.3496033557583453e-02   2   3   3   1 
 +5.6579467125680627e-02   2   3   3   2 
 +0.0000000000000000e+00   2   3   3   3 
 +0.0000000000000000e+00   2   3   3   4 
 +5.4823310342877761e-02   2   3   4   1 
 +5.2094394023997827e-02   2   3   4   2 
 +0.0000000000000000e+00   2   3   4   3 
 +0.0000000000000000e+00   2   3   4   4 
 +0.0000000000000000e+00   2   4   1   1 
 +0.0000000000000000e+00   2   4   1   2 
 +6.1207607997300927e-02   2   4   1   3 
 +5.0487502794391063e-02   2   4   1   4 
 +0.0000000000000000e+00   2   4   2   1 
 +0.0000000000000000e+00   2   4   2   2 
 +5.2094394023997827e-02   2   4   2   3 
 +8.1045327825665717e-02   2   4   2   4 
 +6.1207607997300927e-02   2   4   3   1 
 +5.2094394023997827e-02   2   4   3   2 
 +0.0000000000000000e+00   2   4   3   3 
 +0.0000000000000000e+00   2   4   3   4 
 +5.0487502794391063e-02   2   4   4   1 
 +8.1045327825665717e-02   2   4   4   2 
 +0.0000000000000000e+00   2   4   4   3 
 +0.0000000000000000e+00   2   4   4   4 
 +0.0000000000000000e+00   3   1   1   1 
 +0.0000000000000000e+00   3   1   1   2 
 +5.1830545152139570e-02   3   1   1   3 
 +3.1415023091188848e-02   3   1   1   4 
 +0.0000000000000000e+00   3   1   2   1 
 +0.0000000000000000e+00   3   1   2   2 
 +3.3496033557583453e-02   3   1   2   3 
 +6.1207607997300927e-02   3   1   2   4 
 +5.1830545152139570e-02   3   1   3   1 
 +3.3496033557583453e-02   3   1   3   2 
 +0.0000000000000000e+00   3   1   3   3 
 +0.0000000000000000e+00   3   1   3   4 
 +3.1415023091188848e-02   3   1   4   1 
 +6.1207607997300927e-02   3   1   4   2 
 +0.0000000000000000e+00   3   1   4   3 
 +0.0000000000000000e+00   3   1   4   4 
 +0.0000000000000000e+00   3   2   1   1 
 +0.0000000000000000e+00   3   2   1   2 
 +3.3496033557583453e-02   3   2   1   3 
 +5.4823310342877761e-02   3   2   1   4 
 +0.0000000000000000e+00   3   2   2   1 
 +0.0000000000000000e+00   3   2   2   2 
 +5.6579467125680627e-02   3   2   2   3 
 +5.2094394023997827e-02   3   2   2   4 
 +3.3496033557583453e-02   3   2   3   1 
 +5.6579467125680627e-02   3   2   3   2 
 +0.0000000000000000e+00   3   2   3   3 
 +0.0000000000000000e+00   3   2   3   4 
 +5.4823310342877761e-02   3   2   4   1 
 +5.2094394023997827e-02   3   2   4   2 
 +0.0000000000000000e+00   3   2   4   3 
 +0.0000000000000000e+00   3   2   4   4 
 +3.8096723706797597e-01   3   3   1   1 
 -9.4855469074973262e-02   3   3   1   2 
 +0.0000000000000000e+00   3   3   1   3 
 +0.0000000000000000e+00   3   3   1   4 
 -9.4855469074973262e-02   3   3   2   1 
 +3.4677455445011768e-01   3   3   2   2 
 +0.0000000000000000e+00   3   3   2   3 
 +0.0000000000000000e+00   3   3   2   4 
 +0.0000000000000000e+00   3   3   3   1 
 +0.0000000000000000e+00   3   3   3   2 
 +3.9979623070522829e-01   3   3   3   3 
 -1.1566064352839669e-01   3   3   3   4 
 +0.0000000000000000e+00   3   3   4   1 
 +0.0000000000000000e+00   3   3   4   2 
 -1.1566064352839669e-01   3   3   4   3 
 +3.6661626245081391e-01   3   3   4   4 
 -1.0361929207469650e-01   3   4   1   1 
 +1.3851268061187180e-01   3   4   1   2 
 +0.0000000000000000e+00   3   4   1   3 
 +0.0000000000000000e+00   3   4   1   4 
 +1.3851268061187180e-01   3   4   2   1 
 -5.6392390247524710e-02   3   4   2   2 
 +0.0000000000000000e+00   3   4   2   3 
 +0.0000000000000000e+00   3   4   2   4 
 +0.0000000000000000e+00   3   4   3   1 
 +0.0000000000000000e+00   3   4   3   2 
 -1.1566064352839669e-01   3   4   3   3 
 +1.5759079775771209e-01   3   4   3   4 
 +0.0000000000000000e+00   3   4   4   1 
 +0.0000000000000000e+00   3   4   4   2 
 +1.5759079775771209e-01   3   4   4   3 
 -7.2415542712932615e-02   3   4   4   4 
 +0.0000000000000000e+00   4   1   1   1 
 +0.0000000000000000e+00   4   1   1   2 
 +3.1415023091188848e-02   4   1   1   3 
 +5.4268130597893822e-02   4   1   1   4 
 +0.0000000000000000e+00   4   1   2   1 
 +0.0000000000000000e+00   4   1   2   2 
 +5.4823310342877761e-02   4   1   2   3 
 +5.0487502794391063e-02   4   1   2   4 
 +3.1415023091188848e-02   4   1   3   1 
 +5.4823310342877761e-02   4   1   3   2 
 +0.0000000000000000e+00   4   1   3   3 
 +0.0000000000000000e+00   4   1   3   4 
 +5.4268130597893822e-02   4   1   4   1 
 +5.0487502794391063e-02   4   1   4   2 
 +0.0000000000000000e+00   4   1   4   3 
 +0.0000000000000000e+00   4   1   4   4 
 +0.0000000000000000e+00   4   2   1   1 
 +0.0000000000000000e+00   4   2   1   2 
 +6.1207607997300927e-02   4   2   1   3 
 +5.0487502794391063e-02   4   2   1   4 
 +0.0000000000000000e+00   4   2   2   1 
 +0.0000000000000000e+00   4   2   2   2 
 +5.2094394023997827e-02   4   2   2   3 
 +8.1045327825665717e-02   4   2   2   4 
 +6.1207607997300927e-02   4   2   3   1 
 +5.2094394023997827e-02   4   2   3   2 
 +0.0000000000000000e+00   4   2   3   3 
 +0.0000000000000000e+00   4   2   3   4 
 +5.0487502794391063e-02   4   2   4   1 
 +8.1045327825665717e-02   4   2   4   2 
 +0.0000000000000000e+00   4   2   4   3 
 +0.0000000000000000e+00   4   2   4   4 
 -1.0361929207469650e-01   4   3   1   1 
 +1.3851268061187180e-01   4   3   1   2 
 +0.0000000000000000e+00   4   3   1   3 
 +0.0000000000000000e+00   4   3   1   4 
 +1.3851268061187180e-01   4   3   2   1 
 -5.6392390247524710e-02   4   3   2   2 
 +0.0000000000000000e+00   4   3   2   3 
 +0.0000000000000000e+00   4   3   2   4 
 +0.0000000000000000e+00   4   3   3   1 
 +0.0000000000000000e+00   4   3   3   2 
 -1.1566064352839669e-01   4   3   3   3 
 +1.5759079775771209e-01   4   3   3   4 
 +0.0000000000000000e+00   4   3   4   1 
 +0.0000000000000000e+00   4   3   4   2 
 +1.5759079775771209e-01   4   3   4   3 
 -7.2415542712932615e-02   4   3   4   4 
 +3.5167199041769148e-01   4   4   1   1 
 -5.6525235010343372e-02   4   4   1   2 
 +0.0000000000000000e+00   4   4   1   3 
 +0.0000000000000000e+00   4   4   1   4 
 -5.6525235010343372e-02   4   4   2   1 
 +3.3393451317853889e-01   4   4   2   2 
 +0.0000000000000000e+00   4   4   2   3 
 +0.0000000000000000e+00   4   4   2   4 
 +0.0000000000000000e+00   4   4   3   1 
 +0.0000000000000000e+00   4   4   3   2 
 +3.6661626245081391e-01   4   4   3   3 
 -7.2415542712932615e-02   4   4   3   4 
 +0.0000000000000000e+00   4   4   4   1 
 +0.0000000000000000e+00   4   4   4   2 
 -7.2415542712932615e-02   4   4   4   3 
 +3.5133642809561860e-01   4   4   4   4 
 -1.4979324571329640e+00   1   1   0   0 
 +3.4539046468923118e-01   1   2   0   0 
 +0.0000000000000000e+00   1   3   0   0 
 +0.0000000000000000e+00   1   4   0   0 
 +3.4539046468923118e-01   2   1   0   0 
 -1.3171175687736021e+00   2   2   0   0 
 +0.0000000000000000e+00   2   3   0   0 
 +0.0000000000000000e+00   2   4   0   0 
 +0.0000000000000000e+00   3   1   0   0 
 +0.0000000000000000e+00   3   2   0   0 
 -1.4896347728641719e+00   3   3   0   0 
 +3.5431508486516072e-01   3   4   0   0 
 +0.0000000000000000e+00   4   1   0   0 
 +0.0000000000000000e+00   4   2   0   0 
 +3.5431508486516072e-01   4   3   0   0 
 -1.3127300702507310e+00   4   4   0   0 
 -7.1710451806097325e+01   0   0   0   0 
