 &FCI NORB=  4,NELEC=  4,MS2= 0,
  ORBSYM=1,1,3,3,
  ISYM=1,
 /
  0.5418781620278226E+00   1   1   1   1
 -0.1157375228999886E+00   2   1   1   1
  0.8886456898582287E-01   2   1   2   1
  0.3841181621842606E+00   2   2   1   1
 -0.3976934470882595E-01   2   2   2   1
  0.3340408081615976E+00   2   2   2   2
  0.4848536189546230E+00   3   3   1   1
 -0.7731286398413875E-01   3   3   2   1
  0.3759689035731880E+00   3   3   2   2
  0.5097653443448690E+00   3   3   3   3
 -0.1129893588841536E+00   4   3   1   1
  0.8398361368941760E-01   4   3   2   1
 -0.3681349470654482E-01   4   3   2   2
 -0.1110266396495303E+00   4   3   3   3
  0.1095435252667536E+00   4   3   4   3
  0.3782537736599467E+00   4   4   1   1
 -0.3131475246893538E-01   4   4   2   1
  0.3250233172471085E+00   4   4   2   2
  0.3900660655391112E+00   4   4   3   3
 -0.5033340402283196E-01   4   4   4   3
  0.3390517224522442E+00   4   4   4   4
  0.5021110874201911E-01   3   1   3   1
  0.2292557574946728E-01   3   2   3   1
  0.4230660858282009E-01   3   2   3   2
  0.1634995946060812E-01   4   1   3   1
  0.3531062163892415E-01   4   1   3   2
  0.3716000849167338E-01   4   1   4   1
  0.4630045941247338E-01   4   2   3   1
  0.3987103388347190E-01   4   2   3   2
  0.3696767540700949E-01   4   2   4   1
  0.7047142150515889E-01   4   2   4   2
 -0.1937866584620814E+01   1   1   0   0
  0.2932898252741585E+00   2   1   0   0
 -0.1354021673726672E+01   2   2   0   0
 -0.1930644082597506E+01   3   3   0   0
  0.3533565628633542E+00   4   3   0   0
 -0.1302707085846186E+01   4   4   0   0
 -0.7094756959866311E+02   0   0   0   0
