 &FCI NORB=  4,NELEC=  4,MS2= 0, 
   ORBSYM=1,1,1,1,
   ISYM=1,
  /
 +5.4187816202782257e-01   1   1   1   1 
 -1.1573752289998861e-01   1   1   1   2 
 +0.0000000000000000e+00   1   1   1   3 
 +0.0000000000000000e+00   1   1   1   4 
 -1.1573752289998861e-01   1   1   2   1 
 +3.8411816218426059e-01   1   1   2   2 
 +0.0000000000000000e+00   1   1   2   3 
 +0.0000000000000000e+00   1   1   2   4 
 +0.0000000000000000e+00   1   1   3   1 
 +0.0000000000000000e+00   1   1   3   2 
 +4.8485361895462298e-01   1   1   3   3 
 -1.1298935888415360e-01   1   1   3   4 
 +0.0000000000000000e+00   1   1   4   1 
 +0.0000000000000000e+00   1   1   4   2 
 -1.1298935888415360e-01   1   1   4   3 
 +3.7825377365994672e-01   1   1   4   4 
 -1.1573752289998861e-01   1   2   1   1 
 +8.8864568985822873e-02   1   2   1   2 
 +0.0000000000000000e+00   1   2   1   3 
 +0.0000000000000000e+00   1   2   1   4 
 +8.8864568985822873e-02   1   2   2   1 
 -3.9769344708825947e-02   1   2   2   2 
 +0.0000000000000000e+00   1   2   2   3 
 +0.0000000000000000e+00   1   2   2   4 
 +0.0000000000000000e+00   1   2   3   1 
 +0.0000000000000000e+00   1   2   3   2 
 -7.7312863984138752e-02   1   2   3   3 
 +8.3983613689417605e-02   1   2   3   4 
 +0.0000000000000000e+00   1   2   4   1 
 +0.0000000000000000e+00   1   2   4   2 
 +8.3983613689417605e-02   1   2   4   3 
 -3.1314752468935378e-02   1   2   4   4 
 +0.0000000000000000e+00   1   3   1   1 
 +0.0000000000000000e+00   1   3   1   2 
 +5.0211108742019110e-02   1   3   1   3 
 +1.6349959460608118e-02   1   3   1   4 
 +0.0000000000000000e+00   1   3   2   1 
 +0.0000000000000000e+00   1   3   2   2 
 +2.2925575749467280e-02   1   3   2   3 
 +4.6300459412473377e-02   1   3   2   4 
 +5.0211108742019110e-02   1   3   3   1 
 +2.2925575749467280e-02   1   3   3   2 
 +0.0000000000000000e+00   1   3   3   3 
 +0.0000000000000000e+00   1   3   3   4 
 +1.6349959460608118e-02   1   3   4   1 
 +4.6300459412473377e-02   1   3   4   2 
 +0.0000000000000000e+00   1   3   4   3 
 +0.0000000000000000e+00   1   3   4   4 
 +0.0000000000000000e+00   1   4   1   1 
 +0.0000000000000000e+00   1   4   1   2 
 +1.6349959460608118e-02   1   4   1   3 
 +3.7160008491673377e-02   1   4   1   4 
 +0.0000000000000000e+00   1   4   2   1 
 +0.0000000000000000e+00   1   4   2   2 
 +3.5310621638924150e-02   1   4   2   3 
 +3.6967675407009487e-02   1   4   2   4 
 +1.6349959460608118e-02   1   4   3   1 
 +3.5310621638924150e-02   1   4   3   2 
 +0.0000000000000000e+00   1   4   3   3 
 +0.0000000000000000e+00   1   4   3   4 
 +3.7160008491673377e-02   1   4   4   1 
 +3.6967675407009487e-02   1   4   4   2 
 +0.0000000000000000e+00   1   4   4   3 
 +0.0000000000000000e+00   1   4   4   4 
 -1.1573752289998861e-01   2   1   1   1 
 +8.8864568985822873e-02   2   1   1   2 
 +0.0000000000000000e+00   2   1   1   3 
 +0.0000000000000000e+00   2   1   1   4 
 +8.8864568985822873e-02   2   1   2   1 
 -3.9769344708825947e-02   2   1   2   2 
 +0.0000000000000000e+00   2   1   2   3 
 +0.0000000000000000e+00   2   1   2   4 
 +0.0000000000000000e+00   2   1   3   1 
 +0.0000000000000000e+00   2   1   3   2 
 -7.7312863984138752e-02   2   1   3   3 
 +8.3983613689417605e-02   2   1   3   4 
 +0.0000000000000000e+00   2   1   4   1 
 +0.0000000000000000e+00   2   1   4   2 
 +8.3983613689417605e-02   2   1   4   3 
 -3.1314752468935378e-02   2   1   4   4 
 +3.8411816218426059e-01   2   2   1   1 
 -3.9769344708825947e-02   2   2   1   2 
 +0.0000000000000000e+00   2   2   1   3 
 +0.0000000000000000e+00   2   2   1   4 
 -3.9769344708825947e-02   2   2   2   1 
 +3.3404080816159759e-01   2   2   2   2 
 +0.0000000000000000e+00   2   2   2   3 
 +0.0000000000000000e+00   2   2   2   4 
 +0.0000000000000000e+00   2   2   3   1 
 +0.0000000000000000e+00   2   2   3   2 
 +3.7596890357318802e-01   2   2   3   3 
 -3.6813494706544818e-02   2   2   3   4 
 +0.0000000000000000e+00   2   2   4   1 
 +0.0000000000000000e+00   2   2   4   2 
 -3.6813494706544818e-02   2   2   4   3 
 +3.2502331724710848e-01   2   2   4   4 
 +0.0000000000000000e+00   2   3   1   1 
 +0.0000000000000000e+00   2   3   1   2 
 +2.2925575749467280e-02   2   3   1   3 
 +3.5310621638924150e-02   2   3   1   4 
 +0.0000000000000000e+00   2   3   2   1 
 +0.0000000000000000e+00   2   3   2   2 
 +4.2306608582820093e-02   2   3   2   3 
 +3.9871033883471900e-02   2   3   2   4 
 +2.2925575749467280e-02   2   3   3   1 
 +4.2306608582820093e-02   2   3   3   2 
 +0.0000000000000000e+00   2   3   3   3 
 +0.0000000000000000e+00   2   3   3   4 
 +3.5310621638924150e-02   2   3   4   1 
 +3.9871033883471900e-02   2   3   4   2 
 +0.0000000000000000e+00   2   3   4   3 
 +0.0000000000000000e+00   2   3   4   4 
 +0.0000000000000000e+00   2   4   1   1 
 +0.0000000000000000e+00   2   4   1   2 
 +4.6300459412473377e-02   2   4   1   3 
 +3.6967675407009487e-02   2   4   1   4 
 +0.0000000000000000e+00   2   4   2   1 
 +0.0000000000000000e+00   2   4   2   2 
 +3.9871033883471900e-02   2   4   2   3 
 +7.0471421505158893e-02   2   4   2   4 
 +4.6300459412473377e-02   2   4   3   1 
 +3.9871033883471900e-02   2   4   3   2 
 +0.0000000000000000e+00   2   4   3   3 
 +0.0000000000000000e+00   2   4   3   4 
 +3.6967675407009487e-02   2   4   4   1 
 +7.0471421505158893e-02   2   4   4   2 
 +0.0000000000000000e+00   2   4   4   3 
 +0.0000000000000000e+00   2   4   4   4 
 +0.0000000000000000e+00   3   1   1   1 
 +0.0000000000000000e+00   3   1   1   2 
 +5.0211108742019110e-02   3   1   1   3 
 +1.6349959460608118e-02   3   1   1   4 
 +0.0000000000000000e+00   3   1   2   1 
 +0.0000000000000000e+00   3   1   2   2 
 +2.2925575749467280e-02   3   1   2   3 
 +4.6300459412473377e-02   3   1   2   4 
 +5.0211108742019110e-02   3   1   3   1 
 +2.2925575749467280e-02   3   1   3   2 
 +0.0000000000000000e+00   3   1   3   3 
 +0.0000000000000000e+00   3   1   3   4 
 +1.6349959460608118e-02   3   1   4   1 
 +4.6300459412473377e-02   3   1   4   2 
 +0.0000000000000000e+00   3   1   4   3 
 +0.0000000000000000e+00   3   1   4   4 
 +0.0000000000000000e+00   3   2   1   1 
 +0.0000000000000000e+00   3   2   1   2 
 +2.2925575749467280e-02   3   2   1   3 
 +3.5310621638924150e-02   3   2   1   4 
 +0.0000000000000000e+00   3   2   2   1 
 +0.0000000000000000e+00   3   2   2   2 
 +4.2306608582820093e-02   3   2   2   3 
 +3.9871033883471900e-02   3   2   2   4 
 +2.2925575749467280e-02   3   2   3   1 
 +4.2306608582820093e-02   3   2   3   2 
 +0.0000000000000000e+00   3   2   3   3 
 +0.0000000000000000e+00   3   2   3   4 
 +3.5310621638924150e-02   3   2   4   1 
 +3.9871033883471900e-02   3   2   4   2 
 +0.0000000000000000e+00   3   2   4   3 
 +0.0000000000000000e+00   3   2   4   4 
 +4.8485361895462298e-01   3   3   1   1 
 -7.7312863984138752e-02   3   3   1   2 
 +0.0000000000000000e+00   3   3   1   3 
 +0.0000000000000000e+00   3   3   1   4 
 -7.7312863984138752e-02   3   3   2   1 
 +3.7596890357318802e-01   3   3   2   2 
 +0.0000000000000000e+00   3   3   2   3 
 +0.0000000000000000e+00   3   3   2   4 
 +0.0000000000000000e+00   3   3   3   1 
 +0.0000000000000000e+00   3   3   3   2 
 +5.0976534434486898e-01   3   3   3   3 
 -1.1102663964953030e-01   3   3   3   4 
 +0.0000000000000000e+00   3   3   4   1 
 +0.0000000000000000e+00   3   3   4   2 
 -1.1102663964953030e-01   3   3   4   3 
 +3.9006606553911122e-01   3   3   4   4 
 -1.1298935888415360e-01   3   4   1   1 
 +8.3983613689417605e-02   3   4   1   2 
 +0.0000000000000000e+00   3   4   1   3 
 +0.0000000000000000e+00   3   4   1   4 
 +8.3983613689417605e-02   3   4   2   1 
 -3.6813494706544818e-02   3   4   2   2 
 +0.0000000000000000e+00   3   4   2   3 
 +0.0000000000000000e+00   3   4   2   4 
 +0.0000000000000000e+00   3   4   3   1 
 +0.0000000000000000e+00   3   4   3   2 
 -1.1102663964953030e-01   3   4   3   3 
 +1.0954352526675359e-01   3   4   3   4 
 +0.0000000000000000e+00   3   4   4   1 
 +0.0000000000000000e+00   3   4   4   2 
 +1.0954352526675359e-01   3   4   4   3 
 -5.0333404022831957e-02   3   4   4   4 
 +0.0000000000000000e+00   4   1   1   1 
 +0.0000000000000000e+00   4   1   1   2 
 +1.6349959460608118e-02   4   1   1   3 
 +3.7160008491673377e-02   4   1   1   4 
 +0.0000000000000000e+00   4   1   2   1 
 +0.0000000000000000e+00   4   1   2   2 
 +3.5310621638924150e-02   4   1   2   3 
 +3.6967675407009487e-02   4   1   2   4 
 +1.6349959460608118e-02   4   1   3   1 
 +3.5310621638924150e-02   4   1   3   2 
 +0.0000000000000000e+00   4   1   3   3 
 +0.0000000000000000e+00   4   1   3   4 
 +3.7160008491673377e-02   4   1   4   1 
 +3.6967675407009487e-02   4   1   4   2 
 +0.0000000000000000e+00   4   1   4   3 
 +0.0000000000000000e+00   4   1   4   4 
 +0.0000000000000000e+00   4   2   1   1 
 +0.0000000000000000e+00   4   2   1   2 
 +4.6300459412473377e-02   4   2   1   3 
 +3.6967675407009487e-02   4   2   1   4 
 +0.0000000000000000e+00   4   2   2   1 
 +0.0000000000000000e+00   4   2   2   2 
 +3.9871033883471900e-02   4   2   2   3 
 +7.0471421505158893e-02   4   2   2   4 
 +4.6300459412473377e-02   4   2   3   1 
 +3.9871033883471900e-02   4   2   3   2 
 +0.0000000000000000e+00   4   2   3   3 
 +0.0000000000000000e+00   4   2   3   4 
 +3.6967675407009487e-02   4   2   4   1 
 +7.0471421505158893e-02   4   2   4   2 
 +0.0000000000000000e+00   4   2   4   3 
 +0.0000000000000000e+00   4   2   4   4 
 -1.1298935888415360e-01   4   3   1   1 
 +8.3983613689417605e-02   4   3   1   2 
 +0.0000000000000000e+00   4   3   1   3 
 +0.0000000000000000e+00   4   3   1   4 
 +8.3983613689417605e-02   4   3   2   1 
 -3.6813494706544818e-02   4   3   2   2 
 +0.0000000000000000e+00   4   3   2   3 
 +0.0000000000000000e+00   4   3   2   4 
 +0.0000000000000000e+00   4   3   3   1 
 +0.0000000000000000e+00   4   3   3   2 
 -1.1102663964953030e-01   4   3   3   3 
 +1.0954352526675359e-01   4   3   3   4 
 +0.0000000000000000e+00   4   3   4   1 
 +0.0000000000000000e+00   4   3   4   2 
 +1.0954352526675359e-01   4   3   4   3 
 -5.0333404022831957e-02   4   3   4   4 
 +3.7825377365994672e-01   4   4   1   1 
 -3.1314752468935378e-02   4   4   1   2 
 +0.0000000000000000e+00   4   4   1   3 
 +0.0000000000000000e+00   4   4   1   4 
 -3.1314752468935378e-02   4   4   2   1 
 +3.2502331724710848e-01   4   4   2   2 
 +0.0000000000000000e+00   4   4   2   3 
 +0.0000000000000000e+00   4   4   2   4 
 +0.0000000000000000e+00   4   4   3   1 
 +0.0000000000000000e+00   4   4   3   2 
 +3.9006606553911122e-01   4   4   3   3 
 -5.0333404022831957e-02   4   4   3   4 
 +0.0000000000000000e+00   4   4   4   1 
 +0.0000000000000000e+00   4   4   4   2 
 -5.0333404022831957e-02   4   4   4   3 
 +3.3905172245224419e-01   4   4   4   4 
 -1.9378665846208141e+00   1   1   0   0 
 +2.9328982527415848e-01   1   2   0   0 
 +0.0000000000000000e+00   1   3   0   0 
 +0.0000000000000000e+00   1   4   0   0 
 +2.9328982527415848e-01   2   1   0   0 
 -1.3540216737266719e+00   2   2   0   0 
 +0.0000000000000000e+00   2   3   0   0 
 +0.0000000000000000e+00   2   4   0   0 
 +0.0000000000000000e+00   3   1   0   0 
 +0.0000000000000000e+00   3   2   0   0 
 -1.9306440825975060e+00   3   3   0   0 
 +3.5335656286335421e-01   3   4   0   0 
 +0.0000000000000000e+00   4   1   0   0 
 +0.0000000000000000e+00   4   2   0   0 
 +3.5335656286335421e-01   4   3   0   0 
 -1.3027070858461860e+00   4   4   0   0 
 -7.0947569598663108e+01   0   0   0   0 
