 &FCI NORB=  4,NELEC=  4,MS2= 0, 
   ORBSYM=1,1,1,1,
   ISYM=1,
  /
 +7.1904580271992891e-01   1   1   1   1 
 -4.7249823131574123e-02   1   1   1   2 
 +0.0000000000000000e+00   1   1   1   3 
 +0.0000000000000000e+00   1   1   1   4 
 -4.7249823131574123e-02   1   1   2   1 
 +3.0544828014411313e-01   1   1   2   2 
 +0.0000000000000000e+00   1   1   2   3 
 +0.0000000000000000e+00   1   1   2   4 
 +0.0000000000000000e+00   1   1   3   1 
 +0.0000000000000000e+00   1   1   3   2 
 +6.0597853397986867e-01   1   1   3   3 
 -9.5837130467337647e-02   1   1   3   4 
 +0.0000000000000000e+00   1   1   4   1 
 +0.0000000000000000e+00   1   1   4   2 
 -9.5837130467337647e-02   1   1   4   3 
 +2.8047015502163519e-01   1   1   4   4 
 -4.7249823131574123e-02   1   2   1   1 
 +1.4779414432317410e-02   1   2   1   2 
 +0.0000000000000000e+00   1   2   1   3 
 +0.0000000000000000e+00   1   2   1   4 
 +1.4779414432317410e-02   1   2   2   1 
 +9.1680852138603663e-04   1   2   2   2 
 +0.0000000000000000e+00   1   2   2   3 
 +0.0000000000000000e+00   1   2   2   4 
 +0.0000000000000000e+00   1   2   3   1 
 +0.0000000000000000e+00   1   2   3   2 
 -3.2841356892417517e-02   1   2   3   3 
 +1.4915765822982371e-02   1   2   3   4 
 +0.0000000000000000e+00   1   2   4   1 
 +0.0000000000000000e+00   1   2   4   2 
 +1.4915765822982371e-02   1   2   4   3 
 +3.6601893773125782e-03   1   2   4   4 
 +0.0000000000000000e+00   1   3   1   1 
 +0.0000000000000000e+00   1   3   1   2 
 +4.0468779223440790e-02   1   3   1   3 
 -5.8375398619202453e-03   1   3   1   4 
 +0.0000000000000000e+00   1   3   2   1 
 +0.0000000000000000e+00   1   3   2   2 
 +3.3103883257831622e-03   1   3   2   3 
 +1.2720055087944821e-02   1   3   2   4 
 +4.0468779223440790e-02   1   3   3   1 
 +3.3103883257831622e-03   1   3   3   2 
 +0.0000000000000000e+00   1   3   3   3 
 +0.0000000000000000e+00   1   3   3   4 
 -5.8375398619202453e-03   1   3   4   1 
 +1.2720055087944821e-02   1   3   4   2 
 +0.0000000000000000e+00   1   3   4   3 
 +0.0000000000000000e+00   1   3   4   4 
 +0.0000000000000000e+00   1   4   1   1 
 +0.0000000000000000e+00   1   4   1   2 
 -5.8375398619202453e-03   1   4   1   3 
 +7.5344345757991172e-03   1   4   1   4 
 +0.0000000000000000e+00   1   4   2   1 
 +0.0000000000000000e+00   1   4   2   2 
 +5.1744055127997558e-03   1   4   2   3 
 +1.2689484048670260e-02   1   4   2   4 
 -5.8375398619202453e-03   1   4   3   1 
 +5.1744055127997558e-03   1   4   3   2 
 +0.0000000000000000e+00   1   4   3   3 
 +0.0000000000000000e+00   1   4   3   4 
 +7.5344345757991172e-03   1   4   4   1 
 +1.2689484048670260e-02   1   4   4   2 
 +0.0000000000000000e+00   1   4   4   3 
 +0.0000000000000000e+00   1   4   4   4 
 -4.7249823131574123e-02   2   1   1   1 
 +1.4779414432317410e-02   2   1   1   2 
 +0.0000000000000000e+00   2   1   1   3 
 +0.0000000000000000e+00   2   1   1   4 
 +1.4779414432317410e-02   2   1   2   1 
 +9.1680852138603663e-04   2   1   2   2 
 +0.0000000000000000e+00   2   1   2   3 
 +0.0000000000000000e+00   2   1   2   4 
 +0.0000000000000000e+00   2   1   3   1 
 +0.0000000000000000e+00   2   1   3   2 
 -3.2841356892417517e-02   2   1   3   3 
 +1.4915765822982371e-02   2   1   3   4 
 +0.0000000000000000e+00   2   1   4   1 
 +0.0000000000000000e+00   2   1   4   2 
 +1.4915765822982371e-02   2   1   4   3 
 +3.6601893773125782e-03   2   1   4   4 
 +3.0544828014411313e-01   2   2   1   1 
 +9.1680852138603663e-04   2   2   1   2 
 +0.0000000000000000e+00   2   2   1   3 
 +0.0000000000000000e+00   2   2   1   4 
 +9.1680852138603663e-04   2   2   2   1 
 +2.6633306176375338e-01   2   2   2   2 
 +0.0000000000000000e+00   2   2   2   3 
 +0.0000000000000000e+00   2   2   2   4 
 +0.0000000000000000e+00   2   2   3   1 
 +0.0000000000000000e+00   2   2   3   2 
 +3.1908998184976689e-01   2   2   3   3 
 -8.4850708654331183e-03   2   2   3   4 
 +0.0000000000000000e+00   2   2   4   1 
 +0.0000000000000000e+00   2   2   4   2 
 -8.4850708654331183e-03   2   2   4   3 
 +2.5337100701108922e-01   2   2   4   4 
 +0.0000000000000000e+00   2   3   1   1 
 +0.0000000000000000e+00   2   3   1   2 
 +3.3103883257831622e-03   2   3   1   3 
 +5.1744055127997558e-03   2   3   1   4 
 +0.0000000000000000e+00   2   3   2   1 
 +0.0000000000000000e+00   2   3   2   2 
 +1.3671486958187099e-02   2   3   2   3 
 +1.8991838460175291e-02   2   3   2   4 
 +3.3103883257831622e-03   2   3   3   1 
 +1.3671486958187099e-02   2   3   3   2 
 +0.0000000000000000e+00   2   3   3   3 
 +0.0000000000000000e+00   2   3   3   4 
 +5.1744055127997558e-03   2   3   4   1 
 +1.8991838460175291e-02   2   3   4   2 
 +0.0000000000000000e+00   2   3   4   3 
 +0.0000000000000000e+00   2   3   4   4 
 +0.0000000000000000e+00   2   4   1   1 
 +0.0000000000000000e+00   2   4   1   2 
 +1.2720055087944821e-02   2   4   1   3 
 +1.2689484048670260e-02   2   4   1   4 
 +0.0000000000000000e+00   2   4   2   1 
 +0.0000000000000000e+00   2   4   2   2 
 +1.8991838460175291e-02   2   4   2   3 
 +6.5663326457176027e-02   2   4   2   4 
 +1.2720055087944821e-02   2   4   3   1 
 +1.8991838460175291e-02   2   4   3   2 
 +0.0000000000000000e+00   2   4   3   3 
 +0.0000000000000000e+00   2   4   3   4 
 +1.2689484048670260e-02   2   4   4   1 
 +6.5663326457176027e-02   2   4   4   2 
 +0.0000000000000000e+00   2   4   4   3 
 +0.0000000000000000e+00   2   4   4   4 
 +0.0000000000000000e+00   3   1   1   1 
 +0.0000000000000000e+00   3   1   1   2 
 +4.0468779223440790e-02   3   1   1   3 
 -5.8375398619202453e-03   3   1   1   4 
 +0.0000000000000000e+00   3   1   2   1 
 +0.0000000000000000e+00   3   1   2   2 
 +3.3103883257831622e-03   3   1   2   3 
 +1.2720055087944821e-02   3   1   2   4 
 +4.0468779223440790e-02   3   1   3   1 
 +3.3103883257831622e-03   3   1   3   2 
 +0.0000000000000000e+00   3   1   3   3 
 +0.0000000000000000e+00   3   1   3   4 
 -5.8375398619202453e-03   3   1   4   1 
 +1.2720055087944821e-02   3   1   4   2 
 +0.0000000000000000e+00   3   1   4   3 
 +0.0000000000000000e+00   3   1   4   4 
 +0.0000000000000000e+00   3   2   1   1 
 +0.0000000000000000e+00   3   2   1   2 
 +3.3103883257831622e-03   3   2   1   3 
 +5.1744055127997558e-03   3   2   1   4 
 +0.0000000000000000e+00   3   2   2   1 
 +0.0000000000000000e+00   3   2   2   2 
 +1.3671486958187099e-02   3   2   2   3 
 +1.8991838460175291e-02   3   2   2   4 
 +3.3103883257831622e-03   3   2   3   1 
 +1.3671486958187099e-02   3   2   3   2 
 +0.0000000000000000e+00   3   2   3   3 
 +0.0000000000000000e+00   3   2   3   4 
 +5.1744055127997558e-03   3   2   4   1 
 +1.8991838460175291e-02   3   2   4   2 
 +0.0000000000000000e+00   3   2   4   3 
 +0.0000000000000000e+00   3   2   4   4 
 +6.0597853397986867e-01   3   3   1   1 
 -3.2841356892417517e-02   3   3   1   2 
 +0.0000000000000000e+00   3   3   1   3 
 +0.0000000000000000e+00   3   3   1   4 
 -3.2841356892417517e-02   3   3   2   1 
 +3.1908998184976689e-01   3   3   2   2 
 +0.0000000000000000e+00   3   3   2   3 
 +0.0000000000000000e+00   3   3   2   4 
 +0.0000000000000000e+00   3   3   3   1 
 +0.0000000000000000e+00   3   3   3   2 
 +6.6826107528374190e-01   3   3   3   3 
 -9.3854242239496927e-02   3   3   3   4 
 +0.0000000000000000e+00   3   3   4   1 
 +0.0000000000000000e+00   3   3   4   2 
 -9.3854242239496927e-02   3   3   4   3 
 +2.9868071242232958e-01   3   3   4   4 
 -9.5837130467337647e-02   3   4   1   1 
 +1.4915765822982371e-02   3   4   1   2 
 +0.0000000000000000e+00   3   4   1   3 
 +0.0000000000000000e+00   3   4   1   4 
 +1.4915765822982371e-02   3   4   2   1 
 -8.4850708654331183e-03   3   4   2   2 
 +0.0000000000000000e+00   3   4   2   3 
 +0.0000000000000000e+00   3   4   2   4 
 +0.0000000000000000e+00   3   4   3   1 
 +0.0000000000000000e+00   3   4   3   2 
 -9.3854242239496927e-02   3   4   3   3 
 +3.3898706645790949e-02   3   4   3   4 
 +0.0000000000000000e+00   3   4   4   1 
 +0.0000000000000000e+00   3   4   4   2 
 +3.3898706645790949e-02   3   4   4   3 
 -5.7695494108468137e-03   3   4   4   4 
 +0.0000000000000000e+00   4   1   1   1 
 +0.0000000000000000e+00   4   1   1   2 
 -5.8375398619202453e-03   4   1   1   3 
 +7.5344345757991172e-03   4   1   1   4 
 +0.0000000000000000e+00   4   1   2   1 
 +0.0000000000000000e+00   4   1   2   2 
 +5.1744055127997558e-03   4   1   2   3 
 +1.2689484048670260e-02   4   1   2   4 
 -5.8375398619202453e-03   4   1   3   1 
 +5.1744055127997558e-03   4   1   3   2 
 +0.0000000000000000e+00   4   1   3   3 
 +0.0000000000000000e+00   4   1   3   4 
 +7.5344345757991172e-03   4   1   4   1 
 +1.2689484048670260e-02   4   1   4   2 
 +0.0000000000000000e+00   4   1   4   3 
 +0.0000000000000000e+00   4   1   4   4 
 +0.0000000000000000e+00   4   2   1   1 
 +0.0000000000000000e+00   4   2   1   2 
 +1.2720055087944821e-02   4   2   1   3 
 +1.2689484048670260e-02   4   2   1   4 
 +0.0000000000000000e+00   4   2   2   1 
 +0.0000000000000000e+00   4   2   2   2 
 +1.8991838460175291e-02   4   2   2   3 
 +6.5663326457176027e-02   4   2   2   4 
 +1.2720055087944821e-02   4   2   3   1 
 +1.8991838460175291e-02   4   2   3   2 
 +0.0000000000000000e+00   4   2   3   3 
 +0.0000000000000000e+00   4   2   3   4 
 +1.2689484048670260e-02   4   2   4   1 
 +6.5663326457176027e-02   4   2   4   2 
 +0.0000000000000000e+00   4   2   4   3 
 +0.0000000000000000e+00   4   2   4   4 
 -9.5837130467337647e-02   4   3   1   1 
 +1.4915765822982371e-02   4   3   1   2 
 +0.0000000000000000e+00   4   3   1   3 
 +0.0000000000000000e+00   4   3   1   4 
 +1.4915765822982371e-02   4   3   2   1 
 -8.4850708654331183e-03   4   3   2   2 
 +0.0000000000000000e+00   4   3   2   3 
 +0.0000000000000000e+00   4   3   2   4 
 +0.0000000000000000e+00   4   3   3   1 
 +0.0000000000000000e+00   4   3   3   2 
 -9.3854242239496927e-02   4   3   3   3 
 +3.3898706645790949e-02   4   3   3   4 
 +0.0000000000000000e+00   4   3   4   1 
 +0.0000000000000000e+00   4   3   4   2 
 +3.3898706645790949e-02   4   3   4   3 
 -5.7695494108468137e-03   4   3   4   4 
 +2.8047015502163519e-01   4   4   1   1 
 +3.6601893773125782e-03   4   4   1   2 
 +0.0000000000000000e+00   4   4   1   3 
 +0.0000000000000000e+00   4   4   1   4 
 +3.6601893773125782e-03   4   4   2   1 
 +2.5337100701108922e-01   4   4   2   2 
 +0.0000000000000000e+00   4   4   2   3 
 +0.0000000000000000e+00   4   4   2   4 
 +0.0000000000000000e+00   4   4   3   1 
 +0.0000000000000000e+00   4   4   3   2 
 +2.9868071242232958e-01   4   4   3   3 
 -5.7695494108468137e-03   4   4   3   4 
 +0.0000000000000000e+00   4   4   4   1 
 +0.0000000000000000e+00   4   4   4   2 
 -5.7695494108468137e-03   4   4   4   3 
 +2.5857731408380108e-01   4   4   4   4 
 -2.4681572738357929e+00   1   1   0   0 
 +1.1623605495812050e-01   1   2   0   0 
 +0.0000000000000000e+00   1   3   0   0 
 +0.0000000000000000e+00   1   4   0   0 
 +1.1623605495812050e-01   2   1   0   0 
 -1.0784912308499690e+00   2   2   0   0 
 +0.0000000000000000e+00   2   3   0   0 
 +0.0000000000000000e+00   2   4   0   0 
 +0.0000000000000000e+00   3   1   0   0 
 +0.0000000000000000e+00   3   2   0   0 
 -2.5487757554923922e+00   3   3   0   0 
 +2.7969517084963702e-01   3   4   0   0 
 +0.0000000000000000e+00   4   1   0   0 
 +0.0000000000000000e+00   4   2   0   0 
 +2.7969517084963702e-01   4   3   0   0 
 -9.1291011631813190e-01   4   4   0   0 
 -6.9753499420312323e+01   0   0   0   0 
