 &FCI NORB=  4,NELEC=  4,MS2= 0,
  ORBSYM=1,1,3,3,
  ISYM=1,
 /
  0.7190458027199289E+00   1   1   1   1
 -0.4724982313157412E-01   2   1   1   1
  0.1477941443231741E-01   2   1   2   1
  0.3054482801441131E+00   2   2   1   1
  0.9168085213860366E-03   2   2   2   1
  0.2663330617637534E+00   2   2   2   2
  0.6059785339798687E+00   3   3   1   1
 -0.3284135689241752E-01   3   3   2   1
  0.3190899818497669E+00   3   3   2   2
  0.6682610752837419E+00   3   3   3   3
 -0.9583713046733765E-01   4   3   1   1
  0.1491576582298237E-01   4   3   2   1
 -0.8485070865433118E-02   4   3   2   2
 -0.9385424223949693E-01   4   3   3   3
  0.3389870664579095E-01   4   3   4   3
  0.2804701550216352E+00   4   4   1   1
  0.3660189377312578E-02   4   4   2   1
  0.2533710070110892E+00   4   4   2   2
  0.2986807124223296E+00   4   4   3   3
 -0.5769549410846814E-02   4   4   4   3
  0.2585773140838011E+00   4   4   4   4
  0.4046877922344079E-01   3   1   3   1
  0.3310388325783162E-02   3   2   3   1
  0.1367148695818710E-01   3   2   3   2
 -0.5837539861920245E-02   4   1   3   1
  0.5174405512799756E-02   4   1   3   2
  0.7534434575799117E-02   4   1   4   1
  0.1272005508794482E-01   4   2   3   1
  0.1899183846017529E-01   4   2   3   2
  0.1268948404867026E-01   4   2   4   1
  0.6566332645717603E-01   4   2   4   2
 -0.2468157273835793E+01   1   1   0   0
  0.1162360549581205E+00   2   1   0   0
 -0.1078491230849969E+01   2   2   0   0
 -0.2548775755492392E+01   3   3   0   0
  0.2796951708496370E+00   4   3   0   0
 -0.9129101163181319E+00   4   4   0   0
 -0.6975349942031232E+02   0   0   0   0
