
 Primary working directories    : /scratch/veis/Molpro_96362
 Secondary working directories  : /scratch/veis/Molpro_96362
 Wavefunction directory         : /home/veis/zkousky/h2o_disoc/r_1.0/
 Main file repository           : /scratch/veis/Molpro_96362/

 SHA1      : 2c68d29c09da70e1723824271fadde4bcd5f07a0
 ARCHNAME  : Linux/x86_64
 FC        : /usr/local/programs/common/intel/compiler/2011.5.220/composerxe-2011.5.220/bin/intel64/ifort
 FCVERSION : 12.0.5
 BLASLIB   : -L/usr/local/programs/common/intel/compiler/2011.5.220/composerxe-2011.5.220/mkl/lib/intel64 -lmkl_intel_ilp64 -lmkl_sequential -lmkl_core
 id        : jhinst

 Nodes     nprocs
 b17          7
 Number of processes for MPI-2 version of Molpro:   nprocs(total)=    8   nprocs(compute)=    7   nprocs(helper)=    1
 ga_uses_ma=false, calling ma_init with nominal heap.
 GA-space will be limited to   8.0 MW (determined by -G option)

 Using customized tuning parameters: mindgm=12; mindgv=20; mindgc=4; mindgr=1; noblas=0; minvec=7
 default implementation of scratch files=sf  

 ***,h2o
 memory,500m
 
 r=0.9584*1.0
 a=104.45
 
                                                                                 !symmetry,nosym
 geometry={angstrom
   O;
   H,1,r;
   H,1,r,2,a;}
 
 basis=cc-pVTZ
 spherical
 
 {rhf
 shift,-1.0,-0.5
 wf,10,1,0
 orbprint,6}
 
 {fci
 wf,10,1,0
 core,2,1,0,0
 occ,4,1,2,0
                                                                                 !state,4
                                                                                 !dump
 }
 
 {fci
 wf,10,1,0
 core,2,1,0,0
 occ,4,1,2,0
 dump
 }
 
                                                                                 !put,molden,h2o.molden;
 

 Variables initialized (766), CPU time= 0.01 sec
 Commands  initialized (545), CPU time= 0.01 sec, 513 directives.
 Default parameters read. Elapsed time= 0.07 sec

 Checking input...
 Passed
1


                                         ***  PROGRAM SYSTEM MOLPRO  ***
                         Copyright, University College Cardiff Consultants Limited, 2008

                                    Version 2012.1 linked 30 Oct 2012 00:42:05


 **********************************************************************************************************************************
 LABEL *   h2o                                                                           
 Linux-2.6.38.6-client/b17(x86_64) 64 bit mpp version                                    DATE: 26-Sep-16          TIME: 20:20:20  
 **********************************************************************************************************************************

 SHA1:             2c68d29c09da70e1723824271fadde4bcd5f07a0
 **********************************************************************************************************************************
 SETTING R              =         0.95840000                                  
 SETTING A              =       104.45000000                                  

 Variable memory set to    8388608 words,  buffer space   230000 words

 SETTING BASIS          =    CC-PVTZ


 Recomputing integrals since basis changed


 Using spherical harmonics

 Library entry O      S cc-pVTZ              selected for orbital group  1
 Library entry O      P cc-pVTZ              selected for orbital group  1
 Library entry O      D cc-pVTZ              selected for orbital group  1
 Library entry O      F cc-pVTZ              selected for orbital group  1
 Library entry H      S cc-pVTZ              selected for orbital group  2
 Library entry H      P cc-pVTZ              selected for orbital group  2
 Library entry H      D cc-pVTZ              selected for orbital group  2

1PROGRAM * SEWARD (Integral evaluation for generally contracted gaussian basis sets)     Author: Roland Lindh, 1990

 Geometry written to block  1 of record 700

 Orientation using atomic masses  
 Molecule type: Asymmetric top,     Order of principal axis = 2
 Symmetry elements: X,Y
 Rotational constants:     284.8970172    819.0224318    436.8581637 GHz  (calculated with average atomic masses)

 Point group  C2v 



 ATOMIC COORDINATES

 NR  ATOM    CHARGE       X              Y              Z

   1  O       8.00    0.000000000    0.000000000   -0.124142231
   2  H       1.00    0.000000000    1.431544641    0.985277500
   3  H       1.00    0.000000000   -1.431544641    0.985277500

 Bond lengths in Bohr (Angstrom)

 1-2  1.811113524  1-3  1.811113524
     ( 0.958400000)     ( 0.958400000)

 Bond angles

  2-1-3  104.45000000

 NUCLEAR CHARGE:                   10
 NUMBER OF PRIMITIVE AOS:          81
 NUMBER OF SYMMETRY AOS:           74
 NUMBER OF CONTRACTIONS:           58   (  23A1  +  11B1  +  17B2  +   7A2  )
 NUMBER OF CORE ORBITALS:           1   (   1A1  +   0B1  +   0B2  +   0A2  )
 NUMBER OF VALENCE ORBITALS:        6   (   3A1  +   1B1  +   2B2  +   0A2  )


 NUCLEAR REPULSION ENERGY    9.18361713


 Eigenvalues of metric

         1 0.258E-02 0.580E-02 0.108E-01 0.417E-01 0.840E-01 0.114E+00 0.167E+00 0.270E+00
         2 0.402E-01 0.109E+00 0.245E+00 0.447E+00 0.522E+00 0.703E+00 0.110E+01 0.134E+01
         3 0.474E-02 0.760E-02 0.479E-01 0.691E-01 0.925E-01 0.169E+00 0.279E+00 0.319E+00
         4 0.115E+00 0.317E+00 0.540E+00 0.879E+00 0.121E+01 0.132E+01 0.230E+01


 Contracted 2-electron integrals neglected if value below      1.0D-11
 AO integral compression algorithm  1   Integral accuracy      1.0D-11

     3.670 MB (compressed) written to integral file ( 80.8%)

     Node minimum: 0.524 MB, node maximum: 0.524 MB


 NUMBER OF SORTED TWO-ELECTRON INTEGRALS:      55303.     BUFFER LENGTH:  32768
 NUMBER OF SEGMENTS:   1  SEGMENT LENGTH:      55303      RECORD LENGTH: 524288

 Memory used in sort:       0.61 MW

 SORT1 READ      562034. AND WROTE       51517. INTEGRALS IN      1 RECORDS. CPU TIME:     0.02 SEC, REAL TIME:     0.09 SEC
 SORT2 READ      366996. AND WROTE      396151. INTEGRALS IN     14 RECORDS. CPU TIME:     0.00 SEC, REAL TIME:     0.00 SEC

 Node minimum:       55303.  Node maximum:       57357. integrals

 OPERATOR DM      FOR CENTER  0  COORDINATES:    0.000000    0.000000    0.000000


 **********************************************************************************************************************************
 DATASETS  * FILE   NREC   LENGTH (MB)   RECORD NAMES
              1      18        6.10       500      610      700      900      950      970     1000      129      960     1100   
                                          VAR    BASINP    GEOM    SYMINP    ZMAT    AOBASIS   BASIS     P2S    ABASIS      S 
                                         1400     1410     1200     1210     1080     1600     1650     1700   
                                           T        V       H0       H01     AOSYM     SMH    MOLCAS    OPER   

 PROGRAMS   *        TOTAL       INT
 CPU TIMES  *         0.23      0.14
 REAL TIME  *         1.38 SEC
 DISK USED  *        31.64 MB      
 GA USED    *         0.00 MB       (max)       0.00 MB       (current)
 **********************************************************************************************************************************

1PROGRAM * RHF-SCF (CLOSED SHELL)       Authors: W. Meyer, H.-J. Werner


 NUMBER OF ELECTRONS:       5+    5-    SPACE SYMMETRY=1    SPIN SYMMETRY: Singlet 
 CONVERGENCE THRESHOLDS:    1.00E-05 (Density)    1.00E-07 (Energy)
 MAX. NUMBER OF ITERATIONS:       60
 INTERPOLATION TYPE:            DIIS
 INTERPOLATION STEPS:              2 (START)      1 (STEP)
 LEVEL SHIFTS:                 -1.00 (CLOSED) -0.50 (OPEN) 



 Orbital guess generated from atomic densities. Full valence occupancy:    4   1   2   0

 Molecular orbital dump at record        2100.2

 ITERATION    DDIFF          GRAD             ENERGY        2-EL.EN.            DIPOLE MOMENTS         DIIS   ORB.
    1      0.000D+00      0.000D+00       -76.01905164     77.754446    0.00000    0.00000    1.14411    0    start
    2      0.000D+00      0.235D-01       -76.05366565     75.708180    0.00000    0.00000    0.90710    1    diag
    3      0.225D-01      0.607D-02       -76.05611551     75.756090    0.00000    0.00000    0.85283    2    diag
    4      0.524D-02      0.251D-02       -76.05692009     75.722953    0.00000    0.00000    0.81464    3    diag
    5      0.322D-02      0.912D-03       -76.05706388     75.720578    0.00000    0.00000    0.80220    4    diag
    6      0.144D-02      0.283D-03       -76.05707990     75.719162    0.00000    0.00000    0.79918    5    diag
    7      0.510D-03      0.924D-04       -76.05708181     75.717684    0.00000    0.00000    0.79829    6    diag
    8      0.191D-03      0.275D-04       -76.05708199     75.717047    0.00000    0.00000    0.79784    7    diag
    9      0.622D-04      0.105D-04       -76.05708202     75.716923    0.00000    0.00000    0.79759    8    diag
   10      0.253D-04      0.342D-05       -76.05708202     75.716879    0.00000    0.00000    0.79750    9    orth
   11      0.573D-05      0.139D-05       -76.05708202     75.716883    0.00000    0.00000    0.79749    0    orth

 Final occupancy:   3   1   1   0

 !RHF STATE 1.1 Energy                -76.057082023492
 Nuclear energy                         9.18361713
 One-electron energy                 -123.09914074
 Two-electron energy                   37.85844159
 Virial quotient                       -1.00073550
 !RHF STATE 1.1 Dipole moment           0.00000000     0.00000000     0.79749190
 Dipole moment /Debye                   0.00000000     0.00000000     2.02688946

 ELECTRON ORBITALS
 =================


   Orb  Occ    Energy  Couls-En    Coefficients

                                   1 1s      1 1s      1 1s      1 1s      1 2pz     1 2pz     1 2pz     1 3d0     1 3d2+    1 3d0  
                                   1 3d2+    1 4f0     1 4f2+    2 1s      2 1s      2 1s      2 2pz     2 2py     2 2pz     2 2py  
                                   2 3d0     2 3d2+    2 3d1- 

   1.1   2   -20.5550  -53.5816  0.999304 -0.001042  0.000977 -0.000795  0.004894 -0.003894 -0.001799  0.000022 -0.000048 -0.000169
                                 0.000499  0.000008  0.000098  0.002995 -0.000077 -0.001506 -0.000181 -0.000335 -0.000434 -0.000640
                                -0.000079  0.000019 -0.000170

   2.1   2    -1.3451   -9.2031 -0.008766  0.864879 -0.006620 -0.043651  0.114732  0.007358 -0.026167  0.001021 -0.003813  0.002887
                                -0.007621 -0.000864 -0.002856  0.530111 -0.164055 -0.194411 -0.010494 -0.014825 -0.006986 -0.013918
                                -0.000073 -0.001927  0.002767

   3.1   2    -0.5776   -7.4745 -0.002211 -0.306950 -0.004064 -0.161133  0.808612 -0.014515  0.005325  0.005550 -0.003259  0.018199
                                -0.005774  0.000697 -0.003145  0.511566 -0.060872 -0.159117  0.000993 -0.013472  0.017390 -0.030312
                                -0.003129 -0.004637  0.001014

   4.1   0     0.1421   -2.8757  0.030581 -0.177190 -0.011377 -1.482948 -0.204736 -0.093311 -0.392275 -0.000995 -0.002417 -0.008868
                                 0.051577  0.004231  0.008605  0.162258  0.318606  1.240177  0.002115  0.007993 -0.156115 -0.203676
                                 0.005559 -0.011866  0.024834

   5.1   0     0.6018   -2.9483  0.024508  0.344312 -0.028204  0.633877  0.239642  0.040727  0.602913  0.006092  0.020031 -0.010466
                                -0.038664 -0.009656 -0.017335 -0.482378 -1.802478  1.004323  0.025001  0.044373  0.098404 -0.280748
                                -0.018347  0.012958 -0.014853

   6.1   0     0.6684   -3.0032  0.035306  0.126071 -0.063356  4.571000 -0.638625  0.206807  2.881370 -0.016177  0.022529  0.086539
                                -0.279833 -0.011132 -0.031250  0.203238 -3.342886 -0.745121  0.019206  0.032988  0.866761  1.347413
                                 0.004995  0.073508 -0.090243

   7.1   0     0.8002   -2.4616 -0.017956 -0.210339  0.013569 -0.547944 -0.140914 -0.080014 -1.267709  0.036640  0.009455 -0.141745
                                -0.070237 -0.016232  0.001968 -0.055008  1.351715 -0.344813 -0.053199  0.031549  0.979432 -0.747349
                                -0.061152 -0.043684 -0.036568

   8.1   0     1.1327   -2.7119 -0.266015 -1.438304 -0.020748  7.589299  0.137046  0.987897  1.660605  0.000594  0.011125 -0.040193
                                -0.292080 -0.041478 -0.077893  0.162770 -4.237995 -0.926457  0.112433  0.109937  1.036026  1.647708
                                -0.055157  0.141667 -0.216265

   9.1   0     1.5647   -1.9000  0.329952  1.579537 -0.013949  1.308084  0.469586  0.383054  0.120273  0.002201  0.010086  0.007377
                                 0.258925  0.025639  0.053790 -0.653664 -0.949788 -0.145356 -0.142655 -0.186042  1.149459  1.484483
                                -0.002374 -0.011689  0.054351

                                   1 2px     1 2px     1 2px     1 3d1+    1 3d1+    1 4f1+    1 4f3+    2 2px     2 2px     2 3d1+ 
                                   2 3d2- 

   1.2   2    -0.5044   -7.5589  0.922809 -0.008844  0.065364  0.005215  0.018062  0.001572 -0.004014  0.014215  0.044112 -0.004057
                                -0.005862

   2.2   0     0.7874   -3.5273 -0.668300 -0.444660  1.398216 -0.008724  0.036083  0.002858 -0.006590 -0.017769  0.014628  0.019775
                                 0.027709

   3.2   0     0.9549   -2.0894 -0.063887 -0.028732 -1.116302  0.024141 -0.003194 -0.005676  0.018215 -0.102780  1.424081 -0.004416
                                -0.056757

   4.2   0     2.0367   -1.5015 -0.016948  0.058625  0.715172 -0.014611  1.169686  0.013691 -0.002748  0.056814 -0.954122  0.102948
                                -0.032526

   5.2   0     3.3553    1.7206  0.232859 -0.169847 -0.217501 -0.020031 -0.348965  0.089157  0.081779 -0.289452  0.305327  0.744895
                                -0.527539

   6.2   0     3.7997    0.6906 -2.046413  1.702572  0.481758  0.041511 -0.319406  0.080721 -0.050813  0.813826 -0.384617  0.068104
                                -0.356133

   7.2   0     4.0190    2.7854  1.325941 -0.799465  0.286519 -0.004716  0.406804  0.072358 -0.132589  0.799967 -1.019817  0.583731
                                 0.636303

                                   1 2py     1 2py     1 2py     1 3d1-    1 3d1-    1 4f1-    1 4f3-    2 1s      2 1s      2 1s   
                                   2 2py     2 2pz     2 2py     2 2pz     2 3d1-    2 3d0     2 3d2+ 

   1.3   2    -0.7090   -7.4225  0.730226 -0.018571 -0.086321  0.013083  0.022495  0.000215 -0.003319  0.843310 -0.114187 -0.236234
                                -0.013397 -0.018126 -0.027569 -0.033751  0.008142  0.002818 -0.004463

   2.3   0     0.2040   -2.5038 -0.351209 -0.029503 -0.722095  0.002913 -0.059768 -0.000814  0.002768  0.101818  0.142628  2.456736
                                 0.016868  0.015299 -0.189494 -0.153104  0.013316 -0.000935 -0.012679

   3.3   0     0.5436   -3.0495  0.273326  0.145792  1.163288 -0.027368  0.141636  0.015083 -0.015806 -0.585528 -1.907842  1.056392
                                 0.067360  0.042641  0.065412 -0.032205 -0.042171  0.007067  0.021422

   4.3   0     0.8052   -2.7510 -0.715733  0.373491  3.209931 -0.025448  0.456736  0.026323 -0.021058  0.177781 -2.422601 -2.151846
                                 0.059847  0.046991  1.308631  1.068409 -0.129172 -0.001896  0.086046

   5.3   0     1.1966   -1.3354  0.064172  0.126610  1.625765 -0.002977  0.068332 -0.004719 -0.011742  0.054913 -1.302216 -0.118298
                                 0.097553 -0.083408 -0.894304  1.475990 -0.015101 -0.017092  0.003032

   6.3   0     1.5258   -1.7267  0.510881  0.980417  0.695410  0.000438 -0.063663 -0.006757  0.003452 -0.811426 -1.604757 -0.760843
                                -0.101501 -0.080784  2.064329  1.518481 -0.120786  0.011399  0.075367

   7.3   0     2.0540   -0.7413 -0.049392 -1.848564 -2.779709 -0.014211 -1.735717 -0.116208  0.087347 -2.457931  7.669489  1.300540
                                -0.230163 -0.238217 -2.510403 -1.796061  0.376105 -0.010189 -0.219096

                                   1 3d2-    1 3d2-    1 4f2-    2 2px     2 2px     2 3d2-    2 3d1+ 

   1.4   0     0.8610   -2.3247  0.027408 -0.031471 -0.016341 -0.084796  1.198501 -0.018356 -0.035882

   2.4   0     2.0654   -1.4865 -0.014952  1.240456  0.021290  0.079886 -0.867356  0.082946 -0.017470

   3.4   0     3.5817    2.2015 -0.047958 -0.092432 -0.113517 -0.647831  0.408755  0.549040 -0.615649

   4.4   0     3.9613    3.1993  0.016205 -0.110751  0.179730  1.001845 -0.700488  0.625453 -0.264134

   5.4   0     4.3116    3.5929 -0.106060  1.070959 -0.058229 -0.090781 -0.694520  0.831069  1.017078

   6.4   0     6.9414    5.4021  1.159499 -0.517625  0.205407 -0.150508  0.163971  0.245752  0.103101

 HOMO      1.2    -0.504400 =     -13.7254eV
 LUMO      4.1     0.142134 =       3.8677eV
 LUMO-HOMO         0.646535 =      17.5931eV


 **********************************************************************************************************************************
 DATASETS  * FILE   NREC   LENGTH (MB)   RECORD NAMES
              1      18        6.10       500      610      700      900      950      970     1000      129      960     1100   
                                          VAR    BASINP    GEOM    SYMINP    ZMAT    AOBASIS   BASIS     P2S    ABASIS      S 
                                         1400     1410     1200     1210     1080     1600     1650     1700   
                                           T        V       H0       H01     AOSYM     SMH    MOLCAS    OPER   

              2       4        0.33       700     1000      520     2100   
                                         GEOM     BASIS   MCVARS     RHF  

 PROGRAMS   *        TOTAL       RHF       INT
 CPU TIMES  *         0.28      0.05      0.14
 REAL TIME  *         2.17 SEC
 DISK USED  *        77.49 MB      
 SF USED    *         0.00 MB      
 GA USED    *         0.00 MB       (max)       0.00 MB       (current)
 **********************************************************************************************************************************

1PROGRAM * FCI (Full CI)     Author: P.J. Knowles, 1984

 ***  Initialisation ***
 
 Molecular orbitals read from record     2100.2  Type=RHF/CANONICAL (state 1.1)
 
 Frozen orbitals:              3 (  2  1  0  0  0  0  0  0)
 Active orbitals:              4 (  2  0  2  0  0  0  0  0)
 Active electrons:             4
 Spin quantum number:          0.0
 Orbital pairs:                     6       0       4       0       0       0       0       0
 Strings:                           2       0       4       0       0       0       0       0
                                    2       0       4       0       0       0       0       0
 Determinants:                     20       0      16       0       0       0       0       0

 Load integrals                0.4 sec
 Transform integrals           0.6 sec
 Storage for integrals:             88
 Remaining memory:             8385024

 Core energy:             -69.75349942
 Run Hamiltonian processor DAVIDSON
 Symmetry:                   1
 Trial vector:                  0.00
 Result vector:                 0.00
 Maximum iterations:           90
 Convergence threshold:         0.0000100
 RHS vector:                    0.00
 Hamiltonian shift:             0.0000000
 Output threshold:              0.0500000
 Options:                        0
 Number of roots:             1

 Hamiltonian diagonaliser entered at time      0.91

 Initial configuration generated:
       5      1.0000000    -76.0570820

 It  Tr    CPU  Convergence   Energy       Pop     dE(next)

  1   1    0.9  1.00000000   -76.05708202
                                           0.25 -0.00158785 -0.00136102
  2   1    0.9  0.02964415   -76.05839930
                                           0.25 -0.00021695 -0.00017610
  3   1    0.9  0.01206365   -76.05858324
                                           0.40 -0.00006127 -0.00006000
  4   1    0.9  0.00874246   -76.05864003
                                           0.15 -0.00000139 -0.00000112
  5   1    0.9  0.00094183   -76.05864122
                                           0.30 -0.00000026 -0.00000024
  6   1    0.9  0.00039941   -76.05864146
                                           0.25 -0.00000002 -0.00000002
  7   1    0.9  0.00011169   -76.05864147
                                           0.25  0.00000000  0.00000000
  8   1    0.9  0.00006230   -76.05864148
                                           0.20  0.00000000  0.00000000
  9   1    0.9  0.00001535   -76.05864148
                                           0.40  0.00000000  0.00000000
 10   1    0.9  0.00000461   -76.05864148


RESULTS FOR STATE 1.1
=====================

 Correlation energy                    -0.001559454635
 !FCI STATE 1.1 Energy                -76.058641478127
 CI Vector (threshold= 0.500E-01)
       0.999426313316  1  2  3  4  6  1  2  3  4  6
 /EOF
 !FCI STATE 1.1 Dipole moment           0.00000000     0.00000000     0.78227175
 Dipole moment /Debye                   0.00000000     0.00000000     1.98820623


 **********************************************************************************************************************************
 DATASETS  * FILE   NREC   LENGTH (MB)   RECORD NAMES
              1      18        6.10       500      610      700      900      950      970     1000      129      960     1100   
                                          VAR    BASINP    GEOM    SYMINP    ZMAT    AOBASIS   BASIS     P2S    ABASIS      S 
                                         1400     1410     1200     1210     1080     1600     1650     1700   
                                           T        V       H0       H01     AOSYM     SMH    MOLCAS    OPER   

              2       4        0.33       700     1000      520     2100   
                                         GEOM     BASIS   MCVARS     RHF  

 PROGRAMS   *        TOTAL       FCI       RHF       INT
 CPU TIMES  *         0.82      0.54      0.05      0.14
 REAL TIME  *         4.63 SEC
 DISK USED  *        77.49 MB      
 SF USED    *         0.00 MB      
 GA USED    *         0.00 MB       (max)       0.00 MB       (current)
 **********************************************************************************************************************************

1PROGRAM * FCI (Full CI)     Author: P.J. Knowles, 1984

 ***  Initialisation ***
 
 Molecular orbitals read from record     2100.2  Type=RHF/CANONICAL (state 1.1)
 
 Frozen orbitals:              3 (  2  1  0  0  0  0  0  0)
 Active orbitals:              4 (  2  0  2  0  0  0  0  0)
 Active electrons:             4
 Spin quantum number:          0.0

 Transformed integrals will be written to file FCIDUMP (relative to TMPDIR)
 File format: FCIDUMP.

 Load integrals                0.9 sec
 Transform integrals           1.1 sec
 Storage for integrals:             88
 Remaining memory:             8385024

 Core energy:             -69.75349942
 Run Hamiltonian processor DUMP    
 Symmetry:                   1
 Trial vector:                  0.00
 Result vector:                 0.00
 Maximum iterations:           90
 Convergence threshold:         0.0000100
 RHS vector:                    0.00
 Hamiltonian shift:             0.0000000
 Output threshold:              0.0500000
 Options:                        0
 Number of roots:             1


 **********************************************************************************************************************************
 DATASETS  * FILE   NREC   LENGTH (MB)   RECORD NAMES
              1      18        6.10       500      610      700      900      950      970     1000      129      960     1100   
                                          VAR    BASINP    GEOM    SYMINP    ZMAT    AOBASIS   BASIS     P2S    ABASIS      S 
                                         1400     1410     1200     1210     1080     1600     1650     1700   
                                           T        V       H0       H01     AOSYM     SMH    MOLCAS    OPER   

              2       4        0.33       700     1000      520     2100   
                                         GEOM     BASIS   MCVARS     RHF  

 PROGRAMS   *        TOTAL       FCI       FCI       RHF       INT
 CPU TIMES  *         1.35      0.53      0.54      0.05      0.14
 REAL TIME  *         6.48 SEC
 DISK USED  *        77.49 MB      
 SF USED    *         0.00 MB      
 GA USED    *         0.00 MB       (max)       0.00 MB       (current)
 **********************************************************************************************************************************

        FCI             RHF-SCF 
    -76.05864148    -76.05708202
 **********************************************************************************************************************************
 Variable memory released
