 &FCI NORB=  4,NELEC=  4,MS2= 0, 
   ORBSYM=1,1,1,1,
   ISYM=1,
  /
 +6.5481479299491507e-01   1   1   1   1 
 -8.1827191236869351e-02   1   1   1   2 
 +0.0000000000000000e+00   1   1   1   3 
 +0.0000000000000000e+00   1   1   1   4 
 -8.1827191236869351e-02   1   1   2   1 
 +3.3525985084320070e-01   1   1   2   2 
 +0.0000000000000000e+00   1   1   2   3 
 +0.0000000000000000e+00   1   1   2   4 
 +0.0000000000000000e+00   1   1   3   1 
 +0.0000000000000000e+00   1   1   3   2 
 +5.6051503571503880e-01   1   1   3   3 
 -1.0950805150997940e-01   1   1   3   4 
 +0.0000000000000000e+00   1   1   4   1 
 +0.0000000000000000e+00   1   1   4   2 
 -1.0950805150997940e-01   1   1   4   3 
 +3.1680110849670329e-01   1   1   4   4 
 -8.1827191236869351e-02   1   2   1   1 
 +3.4232068475122210e-02   1   2   1   2 
 +0.0000000000000000e+00   1   2   1   3 
 +0.0000000000000000e+00   1   2   1   4 
 +3.4232068475122210e-02   1   2   2   1 
 -9.2193125090280492e-03   1   2   2   2 
 +0.0000000000000000e+00   1   2   2   3 
 +0.0000000000000000e+00   1   2   2   4 
 +0.0000000000000000e+00   1   2   3   1 
 +0.0000000000000000e+00   1   2   3   2 
 -5.3057100183360927e-02   1   2   3   3 
 +3.4759951626588147e-02   1   2   3   4 
 +0.0000000000000000e+00   1   2   4   1 
 +0.0000000000000000e+00   1   2   4   2 
 +3.4759951626588147e-02   1   2   4   3 
 -3.5640795647445822e-03   1   2   4   4 
 +0.0000000000000000e+00   1   3   1   1 
 +0.0000000000000000e+00   1   3   1   2 
 +4.3761908018554493e-02   1   3   1   3 
 -4.4458636962844099e-04   1   3   1   4 
 +0.0000000000000000e+00   1   3   2   1 
 +0.0000000000000000e+00   1   3   2   2 
 +9.3413229895990407e-03   1   3   2   3 
 +2.4291727843445941e-02   1   3   2   4 
 +4.3761908018554493e-02   1   3   3   1 
 +9.3413229895990407e-03   1   3   3   2 
 +0.0000000000000000e+00   1   3   3   3 
 +0.0000000000000000e+00   1   3   3   4 
 -4.4458636962844099e-04   1   3   4   1 
 +2.4291727843445941e-02   1   3   4   2 
 +0.0000000000000000e+00   1   3   4   3 
 +0.0000000000000000e+00   1   3   4   4 
 +0.0000000000000000e+00   1   4   1   1 
 +0.0000000000000000e+00   1   4   1   2 
 -4.4458636962844099e-04   1   4   1   3 
 +1.6095822733978419e-02   1   4   1   4 
 +0.0000000000000000e+00   1   4   2   1 
 +0.0000000000000000e+00   1   4   2   2 
 +1.3448714234447500e-02   1   4   2   3 
 +2.1081959855035651e-02   1   4   2   4 
 -4.4458636962844099e-04   1   4   3   1 
 +1.3448714234447500e-02   1   4   3   2 
 +0.0000000000000000e+00   1   4   3   3 
 +0.0000000000000000e+00   1   4   3   4 
 +1.6095822733978419e-02   1   4   4   1 
 +2.1081959855035651e-02   1   4   4   2 
 +0.0000000000000000e+00   1   4   4   3 
 +0.0000000000000000e+00   1   4   4   4 
 -8.1827191236869351e-02   2   1   1   1 
 +3.4232068475122210e-02   2   1   1   2 
 +0.0000000000000000e+00   2   1   1   3 
 +0.0000000000000000e+00   2   1   1   4 
 +3.4232068475122210e-02   2   1   2   1 
 -9.2193125090280492e-03   2   1   2   2 
 +0.0000000000000000e+00   2   1   2   3 
 +0.0000000000000000e+00   2   1   2   4 
 +0.0000000000000000e+00   2   1   3   1 
 +0.0000000000000000e+00   2   1   3   2 
 -5.3057100183360927e-02   2   1   3   3 
 +3.4759951626588147e-02   2   1   3   4 
 +0.0000000000000000e+00   2   1   4   1 
 +0.0000000000000000e+00   2   1   4   2 
 +3.4759951626588147e-02   2   1   4   3 
 -3.5640795647445822e-03   2   1   4   4 
 +3.3525985084320070e-01   2   2   1   1 
 -9.2193125090280492e-03   2   2   1   2 
 +0.0000000000000000e+00   2   2   1   3 
 +0.0000000000000000e+00   2   2   1   4 
 -9.2193125090280492e-03   2   2   2   1 
 +2.8387156116208673e-01   2   2   2   2 
 +0.0000000000000000e+00   2   2   2   3 
 +0.0000000000000000e+00   2   2   2   4 
 +0.0000000000000000e+00   2   2   3   1 
 +0.0000000000000000e+00   2   2   3   2 
 +3.4255345149057070e-01   2   2   3   3 
 -1.6408474030590679e-02   2   2   3   4 
 +0.0000000000000000e+00   2   2   4   1 
 +0.0000000000000000e+00   2   2   4   2 
 -1.6408474030590679e-02   2   2   4   3 
 +2.7094052042563282e-01   2   2   4   4 
 +0.0000000000000000e+00   2   3   1   1 
 +0.0000000000000000e+00   2   3   1   2 
 +9.3413229895990407e-03   2   3   1   3 
 +1.3448714234447500e-02   2   3   1   4 
 +0.0000000000000000e+00   2   3   2   1 
 +0.0000000000000000e+00   2   3   2   2 
 +2.2954915794001138e-02   2   3   2   3 
 +2.6112268375070389e-02   2   3   2   4 
 +9.3413229895990407e-03   2   3   3   1 
 +2.2954915794001138e-02   2   3   3   2 
 +0.0000000000000000e+00   2   3   3   3 
 +0.0000000000000000e+00   2   3   3   4 
 +1.3448714234447500e-02   2   3   4   1 
 +2.6112268375070389e-02   2   3   4   2 
 +0.0000000000000000e+00   2   3   4   3 
 +0.0000000000000000e+00   2   3   4   4 
 +0.0000000000000000e+00   2   4   1   1 
 +0.0000000000000000e+00   2   4   1   2 
 +2.4291727843445941e-02   2   4   1   3 
 +2.1081959855035651e-02   2   4   1   4 
 +0.0000000000000000e+00   2   4   2   1 
 +0.0000000000000000e+00   2   4   2   2 
 +2.6112268375070389e-02   2   4   2   3 
 +6.4944057076506884e-02   2   4   2   4 
 +2.4291727843445941e-02   2   4   3   1 
 +2.6112268375070389e-02   2   4   3   2 
 +0.0000000000000000e+00   2   4   3   3 
 +0.0000000000000000e+00   2   4   3   4 
 +2.1081959855035651e-02   2   4   4   1 
 +6.4944057076506884e-02   2   4   4   2 
 +0.0000000000000000e+00   2   4   4   3 
 +0.0000000000000000e+00   2   4   4   4 
 +0.0000000000000000e+00   3   1   1   1 
 +0.0000000000000000e+00   3   1   1   2 
 +4.3761908018554493e-02   3   1   1   3 
 -4.4458636962844099e-04   3   1   1   4 
 +0.0000000000000000e+00   3   1   2   1 
 +0.0000000000000000e+00   3   1   2   2 
 +9.3413229895990407e-03   3   1   2   3 
 +2.4291727843445941e-02   3   1   2   4 
 +4.3761908018554493e-02   3   1   3   1 
 +9.3413229895990407e-03   3   1   3   2 
 +0.0000000000000000e+00   3   1   3   3 
 +0.0000000000000000e+00   3   1   3   4 
 -4.4458636962844099e-04   3   1   4   1 
 +2.4291727843445941e-02   3   1   4   2 
 +0.0000000000000000e+00   3   1   4   3 
 +0.0000000000000000e+00   3   1   4   4 
 +0.0000000000000000e+00   3   2   1   1 
 +0.0000000000000000e+00   3   2   1   2 
 +9.3413229895990407e-03   3   2   1   3 
 +1.3448714234447500e-02   3   2   1   4 
 +0.0000000000000000e+00   3   2   2   1 
 +0.0000000000000000e+00   3   2   2   2 
 +2.2954915794001138e-02   3   2   2   3 
 +2.6112268375070389e-02   3   2   2   4 
 +9.3413229895990407e-03   3   2   3   1 
 +2.2954915794001138e-02   3   2   3   2 
 +0.0000000000000000e+00   3   2   3   3 
 +0.0000000000000000e+00   3   2   3   4 
 +1.3448714234447500e-02   3   2   4   1 
 +2.6112268375070389e-02   3   2   4   2 
 +0.0000000000000000e+00   3   2   4   3 
 +0.0000000000000000e+00   3   2   4   4 
 +5.6051503571503880e-01   3   3   1   1 
 -5.3057100183360927e-02   3   3   1   2 
 +0.0000000000000000e+00   3   3   1   3 
 +0.0000000000000000e+00   3   3   1   4 
 -5.3057100183360927e-02   3   3   2   1 
 +3.4255345149057070e-01   3   3   2   2 
 +0.0000000000000000e+00   3   3   2   3 
 +0.0000000000000000e+00   3   3   2   4 
 +0.0000000000000000e+00   3   3   3   1 
 +0.0000000000000000e+00   3   3   3   2 
 +6.0185668076794119e-01   3   3   3   3 
 -1.0257949318595271e-01   3   3   3   4 
 +0.0000000000000000e+00   3   3   4   1 
 +0.0000000000000000e+00   3   3   4   2 
 -1.0257949318595271e-01   3   3   4   3 
 +3.3114216306206012e-01   3   3   4   4 
 -1.0950805150997940e-01   3   4   1   1 
 +3.4759951626588147e-02   3   4   1   2 
 +0.0000000000000000e+00   3   4   1   3 
 +0.0000000000000000e+00   3   4   1   4 
 +3.4759951626588147e-02   3   4   2   1 
 -1.6408474030590679e-02   3   4   2   2 
 +0.0000000000000000e+00   3   4   2   3 
 +0.0000000000000000e+00   3   4   2   4 
 +0.0000000000000000e+00   3   4   3   1 
 +0.0000000000000000e+00   3   4   3   2 
 -1.0257949318595271e-01   3   4   3   3 
 +5.7071433852132113e-02   3   4   3   4 
 +0.0000000000000000e+00   3   4   4   1 
 +0.0000000000000000e+00   3   4   4   2 
 +5.7071433852132113e-02   3   4   4   3 
 -1.7656236571275959e-02   3   4   4   4 
 +0.0000000000000000e+00   4   1   1   1 
 +0.0000000000000000e+00   4   1   1   2 
 -4.4458636962844099e-04   4   1   1   3 
 +1.6095822733978419e-02   4   1   1   4 
 +0.0000000000000000e+00   4   1   2   1 
 +0.0000000000000000e+00   4   1   2   2 
 +1.3448714234447500e-02   4   1   2   3 
 +2.1081959855035651e-02   4   1   2   4 
 -4.4458636962844099e-04   4   1   3   1 
 +1.3448714234447500e-02   4   1   3   2 
 +0.0000000000000000e+00   4   1   3   3 
 +0.0000000000000000e+00   4   1   3   4 
 +1.6095822733978419e-02   4   1   4   1 
 +2.1081959855035651e-02   4   1   4   2 
 +0.0000000000000000e+00   4   1   4   3 
 +0.0000000000000000e+00   4   1   4   4 
 +0.0000000000000000e+00   4   2   1   1 
 +0.0000000000000000e+00   4   2   1   2 
 +2.4291727843445941e-02   4   2   1   3 
 +2.1081959855035651e-02   4   2   1   4 
 +0.0000000000000000e+00   4   2   2   1 
 +0.0000000000000000e+00   4   2   2   2 
 +2.6112268375070389e-02   4   2   2   3 
 +6.4944057076506884e-02   4   2   2   4 
 +2.4291727843445941e-02   4   2   3   1 
 +2.6112268375070389e-02   4   2   3   2 
 +0.0000000000000000e+00   4   2   3   3 
 +0.0000000000000000e+00   4   2   3   4 
 +2.1081959855035651e-02   4   2   4   1 
 +6.4944057076506884e-02   4   2   4   2 
 +0.0000000000000000e+00   4   2   4   3 
 +0.0000000000000000e+00   4   2   4   4 
 -1.0950805150997940e-01   4   3   1   1 
 +3.4759951626588147e-02   4   3   1   2 
 +0.0000000000000000e+00   4   3   1   3 
 +0.0000000000000000e+00   4   3   1   4 
 +3.4759951626588147e-02   4   3   2   1 
 -1.6408474030590679e-02   4   3   2   2 
 +0.0000000000000000e+00   4   3   2   3 
 +0.0000000000000000e+00   4   3   2   4 
 +0.0000000000000000e+00   4   3   3   1 
 +0.0000000000000000e+00   4   3   3   2 
 -1.0257949318595271e-01   4   3   3   3 
 +5.7071433852132113e-02   4   3   3   4 
 +0.0000000000000000e+00   4   3   4   1 
 +0.0000000000000000e+00   4   3   4   2 
 +5.7071433852132113e-02   4   3   4   3 
 -1.7656236571275959e-02   4   3   4   4 
 +3.1680110849670329e-01   4   4   1   1 
 -3.5640795647445822e-03   4   4   1   2 
 +0.0000000000000000e+00   4   4   1   3 
 +0.0000000000000000e+00   4   4   1   4 
 -3.5640795647445822e-03   4   4   2   1 
 +2.7094052042563282e-01   4   4   2   2 
 +0.0000000000000000e+00   4   4   2   3 
 +0.0000000000000000e+00   4   4   2   4 
 +0.0000000000000000e+00   4   4   3   1 
 +0.0000000000000000e+00   4   4   3   2 
 +3.3114216306206012e-01   4   4   3   3 
 -1.7656236571275959e-02   4   4   3   4 
 +0.0000000000000000e+00   4   4   4   1 
 +0.0000000000000000e+00   4   4   4   2 
 -1.7656236571275959e-02   4   4   4   3 
 +2.7470262287812569e-01   4   4   4   4 
 -2.2736310952619649e+00   1   1   0   0 
 +1.9728256459103519e-01   1   2   0   0 
 +0.0000000000000000e+00   1   3   0   0 
 +0.0000000000000000e+00   1   4   0   0 
 +1.9728256459103519e-01   2   1   0   0 
 -1.1835644818834661e+00   2   2   0   0 
 +0.0000000000000000e+00   2   3   0   0 
 +0.0000000000000000e+00   2   4   0   0 
 +0.0000000000000000e+00   3   1   0   0 
 +0.0000000000000000e+00   3   2   0   0 
 -2.2971092723431981e+00   3   3   0   0 
 +3.2115180132749588e-01   3   4   0   0 
 +0.0000000000000000e+00   4   1   0   0 
 +0.0000000000000000e+00   4   2   0   0 
 +3.2115180132749588e-01   4   3   0   0 
 -1.0442353709875580e+00   4   4   0   0 
 -7.0264899226464493e+01   0   0   0   0 
