 &FCI NORB=  4,NELEC=  4,MS2= 0,
  ORBSYM=1,1,3,3,
  ISYM=1,
 /
  0.6548147929949151E+00   1   1   1   1
 -0.8182719123686935E-01   2   1   1   1
  0.3423206847512221E-01   2   1   2   1
  0.3352598508432007E+00   2   2   1   1
 -0.9219312509028049E-02   2   2   2   1
  0.2838715611620867E+00   2   2   2   2
  0.5605150357150388E+00   3   3   1   1
 -0.5305710018336093E-01   3   3   2   1
  0.3425534514905707E+00   3   3   2   2
  0.6018566807679412E+00   3   3   3   3
 -0.1095080515099794E+00   4   3   1   1
  0.3475995162658815E-01   4   3   2   1
 -0.1640847403059068E-01   4   3   2   2
 -0.1025794931859527E+00   4   3   3   3
  0.5707143385213211E-01   4   3   4   3
  0.3168011084967033E+00   4   4   1   1
 -0.3564079564744582E-02   4   4   2   1
  0.2709405204256328E+00   4   4   2   2
  0.3311421630620601E+00   4   4   3   3
 -0.1765623657127596E-01   4   4   4   3
  0.2747026228781257E+00   4   4   4   4
  0.4376190801855449E-01   3   1   3   1
  0.9341322989599041E-02   3   2   3   1
  0.2295491579400114E-01   3   2   3   2
 -0.4445863696284410E-03   4   1   3   1
  0.1344871423444750E-01   4   1   3   2
  0.1609582273397842E-01   4   1   4   1
  0.2429172784344594E-01   4   2   3   1
  0.2611226837507039E-01   4   2   3   2
  0.2108195985503565E-01   4   2   4   1
  0.6494405707650688E-01   4   2   4   2
 -0.2273631095261965E+01   1   1   0   0
  0.1972825645910352E+00   2   1   0   0
 -0.1183564481883466E+01   2   2   0   0
 -0.2297109272343198E+01   3   3   0   0
  0.3211518013274959E+00   4   3   0   0
 -0.1044235370987558E+01   4   4   0   0
 -0.7026489922646449E+02   0   0   0   0
