 &FCI NORB=  4,NELEC=  4,MS2= 0,
  ORBSYM=1,1,3,3,
  ISYM=1,
 /
  0.3956598617807724E+00   1   1   1   1
 -0.1222128879446433E+00   2   1   1   1
  0.1608786594343551E+00   2   1   2   1
  0.3581283359840367E+00   2   2   1   1
 -0.7365935413176604E-01   2   2   2   1
  0.3400269422115518E+00   2   2   2   2
  0.3696668752173512E+00   3   3   1   1
 -0.9748393805896471E-01   3   3   2   1
  0.3399410221452935E+00   3   3   2   2
  0.3895462725947514E+00   3   3   3   3
 -0.1031763418734796E+00   4   3   1   1
  0.1445294087831296E+00   4   3   2   1
 -0.5848280139751577E-01   4   3   2   2
 -0.1176945996649343E+00   4   3   3   3
  0.1629447209565791E+00   4   3   4   3
  0.3430731297419961E+00   4   4   1   1
 -0.5784031908078927E-01   4   4   2   1
  0.3282656260200426E+00   4   4   2   2
  0.3589388761354256E+00   4   4   3   3
 -0.7351849014959522E-01   4   4   4   3
  0.3447514796165563E+00   4   4   4   4
  0.5175715675975913E-01   3   1   3   1
  0.3407912750640950E-01   3   2   3   1
  0.5745666239083662E-01   3   2   3   2
  0.3287804044212212E-01   4   1   3   1
  0.5650076414727991E-01   4   1   3   2
  0.5631162342474313E-01   4   1   4   1
  0.6199533005532982E-01   4   2   3   1
  0.5269474824800462E-01   4   2   3   2
  0.5190965904441851E-01   4   2   4   1
  0.8143446082192483E-01   4   2   4   2
 -0.1448982532951747E+01   1   1   0   0
  0.3512598042202342E+00   2   1   0   0
 -0.1296411937685168E+01   2   2   0   0
 -0.1444821500869056E+01   3   3   0   0
  0.3569251904530314E+00   4   3   0   0
 -0.1292010668893260E+01   4   4   0   0
 -0.7178879452916676E+02   0   0   0   0
