 &FCI NORB=  4,NELEC=  4,MS2= 0, 
   ORBSYM=1,1,1,1,
   ISYM=1,
  /
 +3.9565986178077239e-01   1   1   1   1 
 -1.2221288794464330e-01   1   1   1   2 
 +0.0000000000000000e+00   1   1   1   3 
 +0.0000000000000000e+00   1   1   1   4 
 -1.2221288794464330e-01   1   1   2   1 
 +3.5812833598403671e-01   1   1   2   2 
 +0.0000000000000000e+00   1   1   2   3 
 +0.0000000000000000e+00   1   1   2   4 
 +0.0000000000000000e+00   1   1   3   1 
 +0.0000000000000000e+00   1   1   3   2 
 +3.6966687521735120e-01   1   1   3   3 
 -1.0317634187347960e-01   1   1   3   4 
 +0.0000000000000000e+00   1   1   4   1 
 +0.0000000000000000e+00   1   1   4   2 
 -1.0317634187347960e-01   1   1   4   3 
 +3.4307312974199611e-01   1   1   4   4 
 -1.2221288794464330e-01   1   2   1   1 
 +1.6087865943435509e-01   1   2   1   2 
 +0.0000000000000000e+00   1   2   1   3 
 +0.0000000000000000e+00   1   2   1   4 
 +1.6087865943435509e-01   1   2   2   1 
 -7.3659354131766039e-02   1   2   2   2 
 +0.0000000000000000e+00   1   2   2   3 
 +0.0000000000000000e+00   1   2   2   4 
 +0.0000000000000000e+00   1   2   3   1 
 +0.0000000000000000e+00   1   2   3   2 
 -9.7483938058964714e-02   1   2   3   3 
 +1.4452940878312959e-01   1   2   3   4 
 +0.0000000000000000e+00   1   2   4   1 
 +0.0000000000000000e+00   1   2   4   2 
 +1.4452940878312959e-01   1   2   4   3 
 -5.7840319080789272e-02   1   2   4   4 
 +0.0000000000000000e+00   1   3   1   1 
 +0.0000000000000000e+00   1   3   1   2 
 +5.1757156759759129e-02   1   3   1   3 
 +3.2878040442122121e-02   1   3   1   4 
 +0.0000000000000000e+00   1   3   2   1 
 +0.0000000000000000e+00   1   3   2   2 
 +3.4079127506409498e-02   1   3   2   3 
 +6.1995330055329818e-02   1   3   2   4 
 +5.1757156759759129e-02   1   3   3   1 
 +3.4079127506409498e-02   1   3   3   2 
 +0.0000000000000000e+00   1   3   3   3 
 +0.0000000000000000e+00   1   3   3   4 
 +3.2878040442122121e-02   1   3   4   1 
 +6.1995330055329818e-02   1   3   4   2 
 +0.0000000000000000e+00   1   3   4   3 
 +0.0000000000000000e+00   1   3   4   4 
 +0.0000000000000000e+00   1   4   1   1 
 +0.0000000000000000e+00   1   4   1   2 
 +3.2878040442122121e-02   1   4   1   3 
 +5.6311623424743128e-02   1   4   1   4 
 +0.0000000000000000e+00   1   4   2   1 
 +0.0000000000000000e+00   1   4   2   2 
 +5.6500764147279912e-02   1   4   2   3 
 +5.1909659044418507e-02   1   4   2   4 
 +3.2878040442122121e-02   1   4   3   1 
 +5.6500764147279912e-02   1   4   3   2 
 +0.0000000000000000e+00   1   4   3   3 
 +0.0000000000000000e+00   1   4   3   4 
 +5.6311623424743128e-02   1   4   4   1 
 +5.1909659044418507e-02   1   4   4   2 
 +0.0000000000000000e+00   1   4   4   3 
 +0.0000000000000000e+00   1   4   4   4 
 -1.2221288794464330e-01   2   1   1   1 
 +1.6087865943435509e-01   2   1   1   2 
 +0.0000000000000000e+00   2   1   1   3 
 +0.0000000000000000e+00   2   1   1   4 
 +1.6087865943435509e-01   2   1   2   1 
 -7.3659354131766039e-02   2   1   2   2 
 +0.0000000000000000e+00   2   1   2   3 
 +0.0000000000000000e+00   2   1   2   4 
 +0.0000000000000000e+00   2   1   3   1 
 +0.0000000000000000e+00   2   1   3   2 
 -9.7483938058964714e-02   2   1   3   3 
 +1.4452940878312959e-01   2   1   3   4 
 +0.0000000000000000e+00   2   1   4   1 
 +0.0000000000000000e+00   2   1   4   2 
 +1.4452940878312959e-01   2   1   4   3 
 -5.7840319080789272e-02   2   1   4   4 
 +3.5812833598403671e-01   2   2   1   1 
 -7.3659354131766039e-02   2   2   1   2 
 +0.0000000000000000e+00   2   2   1   3 
 +0.0000000000000000e+00   2   2   1   4 
 -7.3659354131766039e-02   2   2   2   1 
 +3.4002694221155177e-01   2   2   2   2 
 +0.0000000000000000e+00   2   2   2   3 
 +0.0000000000000000e+00   2   2   2   4 
 +0.0000000000000000e+00   2   2   3   1 
 +0.0000000000000000e+00   2   2   3   2 
 +3.3994102214529348e-01   2   2   3   3 
 -5.8482801397515771e-02   2   2   3   4 
 +0.0000000000000000e+00   2   2   4   1 
 +0.0000000000000000e+00   2   2   4   2 
 -5.8482801397515771e-02   2   2   4   3 
 +3.2826562602004261e-01   2   2   4   4 
 +0.0000000000000000e+00   2   3   1   1 
 +0.0000000000000000e+00   2   3   1   2 
 +3.4079127506409498e-02   2   3   1   3 
 +5.6500764147279912e-02   2   3   1   4 
 +0.0000000000000000e+00   2   3   2   1 
 +0.0000000000000000e+00   2   3   2   2 
 +5.7456662390836619e-02   2   3   2   3 
 +5.2694748248004623e-02   2   3   2   4 
 +3.4079127506409498e-02   2   3   3   1 
 +5.7456662390836619e-02   2   3   3   2 
 +0.0000000000000000e+00   2   3   3   3 
 +0.0000000000000000e+00   2   3   3   4 
 +5.6500764147279912e-02   2   3   4   1 
 +5.2694748248004623e-02   2   3   4   2 
 +0.0000000000000000e+00   2   3   4   3 
 +0.0000000000000000e+00   2   3   4   4 
 +0.0000000000000000e+00   2   4   1   1 
 +0.0000000000000000e+00   2   4   1   2 
 +6.1995330055329818e-02   2   4   1   3 
 +5.1909659044418507e-02   2   4   1   4 
 +0.0000000000000000e+00   2   4   2   1 
 +0.0000000000000000e+00   2   4   2   2 
 +5.2694748248004623e-02   2   4   2   3 
 +8.1434460821924834e-02   2   4   2   4 
 +6.1995330055329818e-02   2   4   3   1 
 +5.2694748248004623e-02   2   4   3   2 
 +0.0000000000000000e+00   2   4   3   3 
 +0.0000000000000000e+00   2   4   3   4 
 +5.1909659044418507e-02   2   4   4   1 
 +8.1434460821924834e-02   2   4   4   2 
 +0.0000000000000000e+00   2   4   4   3 
 +0.0000000000000000e+00   2   4   4   4 
 +0.0000000000000000e+00   3   1   1   1 
 +0.0000000000000000e+00   3   1   1   2 
 +5.1757156759759129e-02   3   1   1   3 
 +3.2878040442122121e-02   3   1   1   4 
 +0.0000000000000000e+00   3   1   2   1 
 +0.0000000000000000e+00   3   1   2   2 
 +3.4079127506409498e-02   3   1   2   3 
 +6.1995330055329818e-02   3   1   2   4 
 +5.1757156759759129e-02   3   1   3   1 
 +3.4079127506409498e-02   3   1   3   2 
 +0.0000000000000000e+00   3   1   3   3 
 +0.0000000000000000e+00   3   1   3   4 
 +3.2878040442122121e-02   3   1   4   1 
 +6.1995330055329818e-02   3   1   4   2 
 +0.0000000000000000e+00   3   1   4   3 
 +0.0000000000000000e+00   3   1   4   4 
 +0.0000000000000000e+00   3   2   1   1 
 +0.0000000000000000e+00   3   2   1   2 
 +3.4079127506409498e-02   3   2   1   3 
 +5.6500764147279912e-02   3   2   1   4 
 +0.0000000000000000e+00   3   2   2   1 
 +0.0000000000000000e+00   3   2   2   2 
 +5.7456662390836619e-02   3   2   2   3 
 +5.2694748248004623e-02   3   2   2   4 
 +3.4079127506409498e-02   3   2   3   1 
 +5.7456662390836619e-02   3   2   3   2 
 +0.0000000000000000e+00   3   2   3   3 
 +0.0000000000000000e+00   3   2   3   4 
 +5.6500764147279912e-02   3   2   4   1 
 +5.2694748248004623e-02   3   2   4   2 
 +0.0000000000000000e+00   3   2   4   3 
 +0.0000000000000000e+00   3   2   4   4 
 +3.6966687521735120e-01   3   3   1   1 
 -9.7483938058964714e-02   3   3   1   2 
 +0.0000000000000000e+00   3   3   1   3 
 +0.0000000000000000e+00   3   3   1   4 
 -9.7483938058964714e-02   3   3   2   1 
 +3.3994102214529348e-01   3   3   2   2 
 +0.0000000000000000e+00   3   3   2   3 
 +0.0000000000000000e+00   3   3   2   4 
 +0.0000000000000000e+00   3   3   3   1 
 +0.0000000000000000e+00   3   3   3   2 
 +3.8954627259475139e-01   3   3   3   3 
 -1.1769459966493430e-01   3   3   3   4 
 +0.0000000000000000e+00   3   3   4   1 
 +0.0000000000000000e+00   3   3   4   2 
 -1.1769459966493430e-01   3   3   4   3 
 +3.5893887613542558e-01   3   3   4   4 
 -1.0317634187347960e-01   3   4   1   1 
 +1.4452940878312959e-01   3   4   1   2 
 +0.0000000000000000e+00   3   4   1   3 
 +0.0000000000000000e+00   3   4   1   4 
 +1.4452940878312959e-01   3   4   2   1 
 -5.8482801397515771e-02   3   4   2   2 
 +0.0000000000000000e+00   3   4   2   3 
 +0.0000000000000000e+00   3   4   2   4 
 +0.0000000000000000e+00   3   4   3   1 
 +0.0000000000000000e+00   3   4   3   2 
 -1.1769459966493430e-01   3   4   3   3 
 +1.6294472095657911e-01   3   4   3   4 
 +0.0000000000000000e+00   3   4   4   1 
 +0.0000000000000000e+00   3   4   4   2 
 +1.6294472095657911e-01   3   4   4   3 
 -7.3518490149595217e-02   3   4   4   4 
 +0.0000000000000000e+00   4   1   1   1 
 +0.0000000000000000e+00   4   1   1   2 
 +3.2878040442122121e-02   4   1   1   3 
 +5.6311623424743128e-02   4   1   1   4 
 +0.0000000000000000e+00   4   1   2   1 
 +0.0000000000000000e+00   4   1   2   2 
 +5.6500764147279912e-02   4   1   2   3 
 +5.1909659044418507e-02   4   1   2   4 
 +3.2878040442122121e-02   4   1   3   1 
 +5.6500764147279912e-02   4   1   3   2 
 +0.0000000000000000e+00   4   1   3   3 
 +0.0000000000000000e+00   4   1   3   4 
 +5.6311623424743128e-02   4   1   4   1 
 +5.1909659044418507e-02   4   1   4   2 
 +0.0000000000000000e+00   4   1   4   3 
 +0.0000000000000000e+00   4   1   4   4 
 +0.0000000000000000e+00   4   2   1   1 
 +0.0000000000000000e+00   4   2   1   2 
 +6.1995330055329818e-02   4   2   1   3 
 +5.1909659044418507e-02   4   2   1   4 
 +0.0000000000000000e+00   4   2   2   1 
 +0.0000000000000000e+00   4   2   2   2 
 +5.2694748248004623e-02   4   2   2   3 
 +8.1434460821924834e-02   4   2   2   4 
 +6.1995330055329818e-02   4   2   3   1 
 +5.2694748248004623e-02   4   2   3   2 
 +0.0000000000000000e+00   4   2   3   3 
 +0.0000000000000000e+00   4   2   3   4 
 +5.1909659044418507e-02   4   2   4   1 
 +8.1434460821924834e-02   4   2   4   2 
 +0.0000000000000000e+00   4   2   4   3 
 +0.0000000000000000e+00   4   2   4   4 
 -1.0317634187347960e-01   4   3   1   1 
 +1.4452940878312959e-01   4   3   1   2 
 +0.0000000000000000e+00   4   3   1   3 
 +0.0000000000000000e+00   4   3   1   4 
 +1.4452940878312959e-01   4   3   2   1 
 -5.8482801397515771e-02   4   3   2   2 
 +0.0000000000000000e+00   4   3   2   3 
 +0.0000000000000000e+00   4   3   2   4 
 +0.0000000000000000e+00   4   3   3   1 
 +0.0000000000000000e+00   4   3   3   2 
 -1.1769459966493430e-01   4   3   3   3 
 +1.6294472095657911e-01   4   3   3   4 
 +0.0000000000000000e+00   4   3   4   1 
 +0.0000000000000000e+00   4   3   4   2 
 +1.6294472095657911e-01   4   3   4   3 
 -7.3518490149595217e-02   4   3   4   4 
 +3.4307312974199611e-01   4   4   1   1 
 -5.7840319080789272e-02   4   4   1   2 
 +0.0000000000000000e+00   4   4   1   3 
 +0.0000000000000000e+00   4   4   1   4 
 -5.7840319080789272e-02   4   4   2   1 
 +3.2826562602004261e-01   4   4   2   2 
 +0.0000000000000000e+00   4   4   2   3 
 +0.0000000000000000e+00   4   4   2   4 
 +0.0000000000000000e+00   4   4   3   1 
 +0.0000000000000000e+00   4   4   3   2 
 +3.5893887613542558e-01   4   4   3   3 
 -7.3518490149595217e-02   4   4   3   4 
 +0.0000000000000000e+00   4   4   4   1 
 +0.0000000000000000e+00   4   4   4   2 
 -7.3518490149595217e-02   4   4   4   3 
 +3.4475147961655628e-01   4   4   4   4 
 -1.4489825329517469e+00   1   1   0   0 
 +3.5125980422023417e-01   1   2   0   0 
 +0.0000000000000000e+00   1   3   0   0 
 +0.0000000000000000e+00   1   4   0   0 
 +3.5125980422023417e-01   2   1   0   0 
 -1.2964119376851679e+00   2   2   0   0 
 +0.0000000000000000e+00   2   3   0   0 
 +0.0000000000000000e+00   2   4   0   0 
 +0.0000000000000000e+00   3   1   0   0 
 +0.0000000000000000e+00   3   2   0   0 
 -1.4448215008690559e+00   3   3   0   0 
 +3.5692519045303139e-01   3   4   0   0 
 +0.0000000000000000e+00   4   1   0   0 
 +0.0000000000000000e+00   4   2   0   0 
 +3.5692519045303139e-01   4   3   0   0 
 -1.2920106688932600e+00   4   4   0   0 
 -7.1788794529166765e+01   0   0   0   0 
