 &FCI NORB=  4,NELEC=  4,MS2= 0,
  ORBSYM=1,1,3,3,
  ISYM=1,
 /
  0.5937592547932189E+00   1   1   1   1
 -0.1050438448350471E+00   2   1   1   1
  0.6191744650057584E-01   2   1   2   1
  0.3656447508887072E+00   2   2   1   1
 -0.2451863345746011E-01   2   2   2   1
  0.3103299654833788E+00   2   2   2   2
  0.5198657947192395E+00   3   3   1   1
 -0.6779040800958300E-01   3   3   2   1
  0.3646940357396401E+00   3   3   2   2
  0.5500411791141384E+00   3   3   3   3
 -0.1149960642166493E+00   4   3   1   1
  0.6058478460532488E-01   4   3   2   1
 -0.2696187577862237E-01   4   3   2   2
 -0.1085168532464187E+00   4   3   3   3
  0.8594159620685081E-01   4   3   4   3
  0.3566368917877096E+00   4   4   1   1
 -0.1754461339782604E-01   4   4   2   1
  0.2994946750667657E+00   4   4   2   2
  0.3685773089923116E+00   4   4   3   3
 -0.3560237874737052E-01   4   4   4   3
  0.3075389598986543E+00   4   4   4   4
  0.4743225924326334E-01   3   1   3   1
  0.1681895349552701E-01   3   2   3   1
  0.3384100193985680E-01   3   2   3   2
  0.8158255282174530E-02   4   1   3   1
  0.2498414559509978E-01   4   1   3   2
  0.2749288574728228E-01   4   1   4   1
  0.3656735403835142E-01   4   2   3   1
  0.3372459385270823E-01   4   2   3   2
  0.2984197909503220E-01   4   2   4   1
  0.6677201920095865E-01   4   2   4   2
 -0.2093438248551764E+01   1   1   0   0
  0.2574433036866766E+00   2   1   0   0
 -0.1288723224087938E+01   2   2   0   0
 -0.2093078307876893E+01   3   3   0   0
  0.3466687906457433E+00   4   3   0   0
 -0.1200017108053750E+01   4   4   0   0
 -0.7065000011430671E+02   0   0   0   0
