 &FCI NORB=  4,NELEC=  4,MS2= 0, 
   ORBSYM=1,1,1,1,
   ISYM=1,
  /
 +5.9375925479321889e-01   1   1   1   1 
 -1.0504384483504710e-01   1   1   1   2 
 +0.0000000000000000e+00   1   1   1   3 
 +0.0000000000000000e+00   1   1   1   4 
 -1.0504384483504710e-01   1   1   2   1 
 +3.6564475088870718e-01   1   1   2   2 
 +0.0000000000000000e+00   1   1   2   3 
 +0.0000000000000000e+00   1   1   2   4 
 +0.0000000000000000e+00   1   1   3   1 
 +0.0000000000000000e+00   1   1   3   2 
 +5.1986579471923955e-01   1   1   3   3 
 -1.1499606421664930e-01   1   1   3   4 
 +0.0000000000000000e+00   1   1   4   1 
 +0.0000000000000000e+00   1   1   4   2 
 -1.1499606421664930e-01   1   1   4   3 
 +3.5663689178770958e-01   1   1   4   4 
 -1.0504384483504710e-01   1   2   1   1 
 +6.1917446500575839e-02   1   2   1   2 
 +0.0000000000000000e+00   1   2   1   3 
 +0.0000000000000000e+00   1   2   1   4 
 +6.1917446500575839e-02   1   2   2   1 
 -2.4518633457460109e-02   1   2   2   2 
 +0.0000000000000000e+00   1   2   2   3 
 +0.0000000000000000e+00   1   2   2   4 
 +0.0000000000000000e+00   1   2   3   1 
 +0.0000000000000000e+00   1   2   3   2 
 -6.7790408009582998e-02   1   2   3   3 
 +6.0584784605324883e-02   1   2   3   4 
 +0.0000000000000000e+00   1   2   4   1 
 +0.0000000000000000e+00   1   2   4   2 
 +6.0584784605324883e-02   1   2   4   3 
 -1.7544613397826040e-02   1   2   4   4 
 +0.0000000000000000e+00   1   3   1   1 
 +0.0000000000000000e+00   1   3   1   2 
 +4.7432259243263337e-02   1   3   1   3 
 +8.1582552821745299e-03   1   3   1   4 
 +0.0000000000000000e+00   1   3   2   1 
 +0.0000000000000000e+00   1   3   2   2 
 +1.6818953495527009e-02   1   3   2   3 
 +3.6567354038351423e-02   1   3   2   4 
 +4.7432259243263337e-02   1   3   3   1 
 +1.6818953495527009e-02   1   3   3   2 
 +0.0000000000000000e+00   1   3   3   3 
 +0.0000000000000000e+00   1   3   3   4 
 +8.1582552821745299e-03   1   3   4   1 
 +3.6567354038351423e-02   1   3   4   2 
 +0.0000000000000000e+00   1   3   4   3 
 +0.0000000000000000e+00   1   3   4   4 
 +0.0000000000000000e+00   1   4   1   1 
 +0.0000000000000000e+00   1   4   1   2 
 +8.1582552821745299e-03   1   4   1   3 
 +2.7492885747282279e-02   1   4   1   4 
 +0.0000000000000000e+00   1   4   2   1 
 +0.0000000000000000e+00   1   4   2   2 
 +2.4984145595099781e-02   1   4   2   3 
 +2.9841979095032199e-02   1   4   2   4 
 +8.1582552821745299e-03   1   4   3   1 
 +2.4984145595099781e-02   1   4   3   2 
 +0.0000000000000000e+00   1   4   3   3 
 +0.0000000000000000e+00   1   4   3   4 
 +2.7492885747282279e-02   1   4   4   1 
 +2.9841979095032199e-02   1   4   4   2 
 +0.0000000000000000e+00   1   4   4   3 
 +0.0000000000000000e+00   1   4   4   4 
 -1.0504384483504710e-01   2   1   1   1 
 +6.1917446500575839e-02   2   1   1   2 
 +0.0000000000000000e+00   2   1   1   3 
 +0.0000000000000000e+00   2   1   1   4 
 +6.1917446500575839e-02   2   1   2   1 
 -2.4518633457460109e-02   2   1   2   2 
 +0.0000000000000000e+00   2   1   2   3 
 +0.0000000000000000e+00   2   1   2   4 
 +0.0000000000000000e+00   2   1   3   1 
 +0.0000000000000000e+00   2   1   3   2 
 -6.7790408009582998e-02   2   1   3   3 
 +6.0584784605324883e-02   2   1   3   4 
 +0.0000000000000000e+00   2   1   4   1 
 +0.0000000000000000e+00   2   1   4   2 
 +6.0584784605324883e-02   2   1   4   3 
 -1.7544613397826040e-02   2   1   4   4 
 +3.6564475088870718e-01   2   2   1   1 
 -2.4518633457460109e-02   2   2   1   2 
 +0.0000000000000000e+00   2   2   1   3 
 +0.0000000000000000e+00   2   2   1   4 
 -2.4518633457460109e-02   2   2   2   1 
 +3.1032996548337882e-01   2   2   2   2 
 +0.0000000000000000e+00   2   2   2   3 
 +0.0000000000000000e+00   2   2   2   4 
 +0.0000000000000000e+00   2   2   3   1 
 +0.0000000000000000e+00   2   2   3   2 
 +3.6469403573964010e-01   2   2   3   3 
 -2.6961875778622371e-02   2   2   3   4 
 +0.0000000000000000e+00   2   2   4   1 
 +0.0000000000000000e+00   2   2   4   2 
 -2.6961875778622371e-02   2   2   4   3 
 +2.9949467506676569e-01   2   2   4   4 
 +0.0000000000000000e+00   2   3   1   1 
 +0.0000000000000000e+00   2   3   1   2 
 +1.6818953495527009e-02   2   3   1   3 
 +2.4984145595099781e-02   2   3   1   4 
 +0.0000000000000000e+00   2   3   2   1 
 +0.0000000000000000e+00   2   3   2   2 
 +3.3841001939856799e-02   2   3   2   3 
 +3.3724593852708228e-02   2   3   2   4 
 +1.6818953495527009e-02   2   3   3   1 
 +3.3841001939856799e-02   2   3   3   2 
 +0.0000000000000000e+00   2   3   3   3 
 +0.0000000000000000e+00   2   3   3   4 
 +2.4984145595099781e-02   2   3   4   1 
 +3.3724593852708228e-02   2   3   4   2 
 +0.0000000000000000e+00   2   3   4   3 
 +0.0000000000000000e+00   2   3   4   4 
 +0.0000000000000000e+00   2   4   1   1 
 +0.0000000000000000e+00   2   4   1   2 
 +3.6567354038351423e-02   2   4   1   3 
 +2.9841979095032199e-02   2   4   1   4 
 +0.0000000000000000e+00   2   4   2   1 
 +0.0000000000000000e+00   2   4   2   2 
 +3.3724593852708228e-02   2   4   2   3 
 +6.6772019200958654e-02   2   4   2   4 
 +3.6567354038351423e-02   2   4   3   1 
 +3.3724593852708228e-02   2   4   3   2 
 +0.0000000000000000e+00   2   4   3   3 
 +0.0000000000000000e+00   2   4   3   4 
 +2.9841979095032199e-02   2   4   4   1 
 +6.6772019200958654e-02   2   4   4   2 
 +0.0000000000000000e+00   2   4   4   3 
 +0.0000000000000000e+00   2   4   4   4 
 +0.0000000000000000e+00   3   1   1   1 
 +0.0000000000000000e+00   3   1   1   2 
 +4.7432259243263337e-02   3   1   1   3 
 +8.1582552821745299e-03   3   1   1   4 
 +0.0000000000000000e+00   3   1   2   1 
 +0.0000000000000000e+00   3   1   2   2 
 +1.6818953495527009e-02   3   1   2   3 
 +3.6567354038351423e-02   3   1   2   4 
 +4.7432259243263337e-02   3   1   3   1 
 +1.6818953495527009e-02   3   1   3   2 
 +0.0000000000000000e+00   3   1   3   3 
 +0.0000000000000000e+00   3   1   3   4 
 +8.1582552821745299e-03   3   1   4   1 
 +3.6567354038351423e-02   3   1   4   2 
 +0.0000000000000000e+00   3   1   4   3 
 +0.0000000000000000e+00   3   1   4   4 
 +0.0000000000000000e+00   3   2   1   1 
 +0.0000000000000000e+00   3   2   1   2 
 +1.6818953495527009e-02   3   2   1   3 
 +2.4984145595099781e-02   3   2   1   4 
 +0.0000000000000000e+00   3   2   2   1 
 +0.0000000000000000e+00   3   2   2   2 
 +3.3841001939856799e-02   3   2   2   3 
 +3.3724593852708228e-02   3   2   2   4 
 +1.6818953495527009e-02   3   2   3   1 
 +3.3841001939856799e-02   3   2   3   2 
 +0.0000000000000000e+00   3   2   3   3 
 +0.0000000000000000e+00   3   2   3   4 
 +2.4984145595099781e-02   3   2   4   1 
 +3.3724593852708228e-02   3   2   4   2 
 +0.0000000000000000e+00   3   2   4   3 
 +0.0000000000000000e+00   3   2   4   4 
 +5.1986579471923955e-01   3   3   1   1 
 -6.7790408009582998e-02   3   3   1   2 
 +0.0000000000000000e+00   3   3   1   3 
 +0.0000000000000000e+00   3   3   1   4 
 -6.7790408009582998e-02   3   3   2   1 
 +3.6469403573964010e-01   3   3   2   2 
 +0.0000000000000000e+00   3   3   2   3 
 +0.0000000000000000e+00   3   3   2   4 
 +0.0000000000000000e+00   3   3   3   1 
 +0.0000000000000000e+00   3   3   3   2 
 +5.5004117911413841e-01   3   3   3   3 
 -1.0851685324641870e-01   3   3   3   4 
 +0.0000000000000000e+00   3   3   4   1 
 +0.0000000000000000e+00   3   3   4   2 
 -1.0851685324641870e-01   3   3   4   3 
 +3.6857730899231161e-01   3   3   4   4 
 -1.1499606421664930e-01   3   4   1   1 
 +6.0584784605324883e-02   3   4   1   2 
 +0.0000000000000000e+00   3   4   1   3 
 +0.0000000000000000e+00   3   4   1   4 
 +6.0584784605324883e-02   3   4   2   1 
 -2.6961875778622371e-02   3   4   2   2 
 +0.0000000000000000e+00   3   4   2   3 
 +0.0000000000000000e+00   3   4   2   4 
 +0.0000000000000000e+00   3   4   3   1 
 +0.0000000000000000e+00   3   4   3   2 
 -1.0851685324641870e-01   3   4   3   3 
 +8.5941596206850809e-02   3   4   3   4 
 +0.0000000000000000e+00   3   4   4   1 
 +0.0000000000000000e+00   3   4   4   2 
 +8.5941596206850809e-02   3   4   4   3 
 -3.5602378747370517e-02   3   4   4   4 
 +0.0000000000000000e+00   4   1   1   1 
 +0.0000000000000000e+00   4   1   1   2 
 +8.1582552821745299e-03   4   1   1   3 
 +2.7492885747282279e-02   4   1   1   4 
 +0.0000000000000000e+00   4   1   2   1 
 +0.0000000000000000e+00   4   1   2   2 
 +2.4984145595099781e-02   4   1   2   3 
 +2.9841979095032199e-02   4   1   2   4 
 +8.1582552821745299e-03   4   1   3   1 
 +2.4984145595099781e-02   4   1   3   2 
 +0.0000000000000000e+00   4   1   3   3 
 +0.0000000000000000e+00   4   1   3   4 
 +2.7492885747282279e-02   4   1   4   1 
 +2.9841979095032199e-02   4   1   4   2 
 +0.0000000000000000e+00   4   1   4   3 
 +0.0000000000000000e+00   4   1   4   4 
 +0.0000000000000000e+00   4   2   1   1 
 +0.0000000000000000e+00   4   2   1   2 
 +3.6567354038351423e-02   4   2   1   3 
 +2.9841979095032199e-02   4   2   1   4 
 +0.0000000000000000e+00   4   2   2   1 
 +0.0000000000000000e+00   4   2   2   2 
 +3.3724593852708228e-02   4   2   2   3 
 +6.6772019200958654e-02   4   2   2   4 
 +3.6567354038351423e-02   4   2   3   1 
 +3.3724593852708228e-02   4   2   3   2 
 +0.0000000000000000e+00   4   2   3   3 
 +0.0000000000000000e+00   4   2   3   4 
 +2.9841979095032199e-02   4   2   4   1 
 +6.6772019200958654e-02   4   2   4   2 
 +0.0000000000000000e+00   4   2   4   3 
 +0.0000000000000000e+00   4   2   4   4 
 -1.1499606421664930e-01   4   3   1   1 
 +6.0584784605324883e-02   4   3   1   2 
 +0.0000000000000000e+00   4   3   1   3 
 +0.0000000000000000e+00   4   3   1   4 
 +6.0584784605324883e-02   4   3   2   1 
 -2.6961875778622371e-02   4   3   2   2 
 +0.0000000000000000e+00   4   3   2   3 
 +0.0000000000000000e+00   4   3   2   4 
 +0.0000000000000000e+00   4   3   3   1 
 +0.0000000000000000e+00   4   3   3   2 
 -1.0851685324641870e-01   4   3   3   3 
 +8.5941596206850809e-02   4   3   3   4 
 +0.0000000000000000e+00   4   3   4   1 
 +0.0000000000000000e+00   4   3   4   2 
 +8.5941596206850809e-02   4   3   4   3 
 -3.5602378747370517e-02   4   3   4   4 
 +3.5663689178770958e-01   4   4   1   1 
 -1.7544613397826040e-02   4   4   1   2 
 +0.0000000000000000e+00   4   4   1   3 
 +0.0000000000000000e+00   4   4   1   4 
 -1.7544613397826040e-02   4   4   2   1 
 +2.9949467506676569e-01   4   4   2   2 
 +0.0000000000000000e+00   4   4   2   3 
 +0.0000000000000000e+00   4   4   2   4 
 +0.0000000000000000e+00   4   4   3   1 
 +0.0000000000000000e+00   4   4   3   2 
 +3.6857730899231161e-01   4   4   3   3 
 -3.5602378747370517e-02   4   4   3   4 
 +0.0000000000000000e+00   4   4   4   1 
 +0.0000000000000000e+00   4   4   4   2 
 -3.5602378747370517e-02   4   4   4   3 
 +3.0753895989865432e-01   4   4   4   4 
 -2.0934382485517640e+00   1   1   0   0 
 +2.5744330368667662e-01   1   2   0   0 
 +0.0000000000000000e+00   1   3   0   0 
 +0.0000000000000000e+00   1   4   0   0 
 +2.5744330368667662e-01   2   1   0   0 
 -1.2887232240879380e+00   2   2   0   0 
 +0.0000000000000000e+00   2   3   0   0 
 +0.0000000000000000e+00   2   4   0   0 
 +0.0000000000000000e+00   3   1   0   0 
 +0.0000000000000000e+00   3   2   0   0 
 -2.0930783078768931e+00   3   3   0   0 
 +3.4666879064574330e-01   3   4   0   0 
 +0.0000000000000000e+00   4   1   0   0 
 +0.0000000000000000e+00   4   2   0   0 
 +3.4666879064574330e-01   4   3   0   0 
 -1.2000171080537501e+00   4   4   0   0 
 -7.0650000114306707e+01   0   0   0   0 
