 &FCI NORB=  4,NELEC=  4,MS2= 0,
  ORBSYM=1,1,3,3,
  ISYM=1,
 /
  0.4190920129786803E+00   1   1   1   1
  0.1038018688807068E+00   2   1   1   1
  0.1374268184403483E+00   2   1   2   1
  0.3853132051216746E+00   2   2   1   1
  0.8094172572159408E-01   2   2   2   1
  0.3693939586248556E+00   2   2   2   2
  0.4143911408958351E+00   3   3   1   1
  0.1067089090110895E+00   3   3   2   1
  0.3846816635808386E+00   3   3   2   2
  0.4669203136289827E+00   3   3   3   3
 -0.8600147907345133E-01   4   3   1   1
 -0.1208129106479747E+00   4   3   2   1
 -0.6574553784752019E-01   4   3   2   2
 -0.1289186647149437E+00   4   3   3   3
  0.1378752700564865E+00   4   3   4   3
  0.3548525838730933E+00   4   4   1   1
  0.3727361537623373E-01   4   4   2   1
  0.3422229517007989E+00   4   4   2   2
  0.3802838503701327E+00   4   4   3   3
 -0.5096787488687671E-01   4   4   4   3
  0.3496437624264515E+00   4   4   4   4
  0.5200554000169466E-01   3   1   3   1
 -0.2407471947657758E-01   3   2   3   1
  0.4388073610423553E-01   3   2   3   2
  0.3463489895214205E-01   4   1   3   1
 -0.4912297304758895E-01   4   1   3   2
  0.5999860927489904E-01   4   1   4   1
 -0.5761786069898157E-01   4   2   3   1
  0.3996365552602231E-01   4   2   3   2
 -0.5482877441023112E-01   4   2   4   1
  0.7721941710199862E-01   4   2   4   2
 -0.1594997254295223E+01   1   1   0   0
 -0.3412947206704009E+00   2   1   0   0
 -0.1403464103145087E+01   2   2   0   0
 -0.1677034653389144E+01   3   3   0   0
  0.3355569666555306E+00   4   3   0   0
 -0.1312901126042167E+01   4   4   0   0
 -0.7147050170059535E+02   0   0   0   0
