 &FCI NORB=  4,NELEC=  4,MS2= 0, 
   ORBSYM=1,1,1,1,
   ISYM=1,
  /
 +4.1909201297868032e-01   1   1   1   1 
 +1.0380186888070680e-01   1   1   1   2 
 +0.0000000000000000e+00   1   1   1   3 
 +0.0000000000000000e+00   1   1   1   4 
 +1.0380186888070680e-01   1   1   2   1 
 +3.8531320512167461e-01   1   1   2   2 
 +0.0000000000000000e+00   1   1   2   3 
 +0.0000000000000000e+00   1   1   2   4 
 +0.0000000000000000e+00   1   1   3   1 
 +0.0000000000000000e+00   1   1   3   2 
 +4.1439114089583512e-01   1   1   3   3 
 -8.6001479073451334e-02   1   1   3   4 
 +0.0000000000000000e+00   1   1   4   1 
 +0.0000000000000000e+00   1   1   4   2 
 -8.6001479073451334e-02   1   1   4   3 
 +3.5485258387309332e-01   1   1   4   4 
 +1.0380186888070680e-01   1   2   1   1 
 +1.3742681844034829e-01   1   2   1   2 
 +0.0000000000000000e+00   1   2   1   3 
 +0.0000000000000000e+00   1   2   1   4 
 +1.3742681844034829e-01   1   2   2   1 
 +8.0941725721594082e-02   1   2   2   2 
 +0.0000000000000000e+00   1   2   2   3 
 +0.0000000000000000e+00   1   2   2   4 
 +0.0000000000000000e+00   1   2   3   1 
 +0.0000000000000000e+00   1   2   3   2 
 +1.0670890901108950e-01   1   2   3   3 
 -1.2081291064797470e-01   1   2   3   4 
 +0.0000000000000000e+00   1   2   4   1 
 +0.0000000000000000e+00   1   2   4   2 
 -1.2081291064797470e-01   1   2   4   3 
 +3.7273615376233728e-02   1   2   4   4 
 +0.0000000000000000e+00   1   3   1   1 
 +0.0000000000000000e+00   1   3   1   2 
 +5.2005540001694661e-02   1   3   1   3 
 +3.4634898952142050e-02   1   3   1   4 
 +0.0000000000000000e+00   1   3   2   1 
 +0.0000000000000000e+00   1   3   2   2 
 -2.4074719476577581e-02   1   3   2   3 
 -5.7617860698981567e-02   1   3   2   4 
 +5.2005540001694661e-02   1   3   3   1 
 -2.4074719476577581e-02   1   3   3   2 
 +0.0000000000000000e+00   1   3   3   3 
 +0.0000000000000000e+00   1   3   3   4 
 +3.4634898952142050e-02   1   3   4   1 
 -5.7617860698981567e-02   1   3   4   2 
 +0.0000000000000000e+00   1   3   4   3 
 +0.0000000000000000e+00   1   3   4   4 
 +0.0000000000000000e+00   1   4   1   1 
 +0.0000000000000000e+00   1   4   1   2 
 +3.4634898952142050e-02   1   4   1   3 
 +5.9998609274899042e-02   1   4   1   4 
 +0.0000000000000000e+00   1   4   2   1 
 +0.0000000000000000e+00   1   4   2   2 
 -4.9122973047588947e-02   1   4   2   3 
 -5.4828774410231117e-02   1   4   2   4 
 +3.4634898952142050e-02   1   4   3   1 
 -4.9122973047588947e-02   1   4   3   2 
 +0.0000000000000000e+00   1   4   3   3 
 +0.0000000000000000e+00   1   4   3   4 
 +5.9998609274899042e-02   1   4   4   1 
 -5.4828774410231117e-02   1   4   4   2 
 +0.0000000000000000e+00   1   4   4   3 
 +0.0000000000000000e+00   1   4   4   4 
 +1.0380186888070680e-01   2   1   1   1 
 +1.3742681844034829e-01   2   1   1   2 
 +0.0000000000000000e+00   2   1   1   3 
 +0.0000000000000000e+00   2   1   1   4 
 +1.3742681844034829e-01   2   1   2   1 
 +8.0941725721594082e-02   2   1   2   2 
 +0.0000000000000000e+00   2   1   2   3 
 +0.0000000000000000e+00   2   1   2   4 
 +0.0000000000000000e+00   2   1   3   1 
 +0.0000000000000000e+00   2   1   3   2 
 +1.0670890901108950e-01   2   1   3   3 
 -1.2081291064797470e-01   2   1   3   4 
 +0.0000000000000000e+00   2   1   4   1 
 +0.0000000000000000e+00   2   1   4   2 
 -1.2081291064797470e-01   2   1   4   3 
 +3.7273615376233728e-02   2   1   4   4 
 +3.8531320512167461e-01   2   2   1   1 
 +8.0941725721594082e-02   2   2   1   2 
 +0.0000000000000000e+00   2   2   1   3 
 +0.0000000000000000e+00   2   2   1   4 
 +8.0941725721594082e-02   2   2   2   1 
 +3.6939395862485558e-01   2   2   2   2 
 +0.0000000000000000e+00   2   2   2   3 
 +0.0000000000000000e+00   2   2   2   4 
 +0.0000000000000000e+00   2   2   3   1 
 +0.0000000000000000e+00   2   2   3   2 
 +3.8468166358083861e-01   2   2   3   3 
 -6.5745537847520186e-02   2   2   3   4 
 +0.0000000000000000e+00   2   2   4   1 
 +0.0000000000000000e+00   2   2   4   2 
 -6.5745537847520186e-02   2   2   4   3 
 +3.4222295170079892e-01   2   2   4   4 
 +0.0000000000000000e+00   2   3   1   1 
 +0.0000000000000000e+00   2   3   1   2 
 -2.4074719476577581e-02   2   3   1   3 
 -4.9122973047588947e-02   2   3   1   4 
 +0.0000000000000000e+00   2   3   2   1 
 +0.0000000000000000e+00   2   3   2   2 
 +4.3880736104235533e-02   2   3   2   3 
 +3.9963655526022310e-02   2   3   2   4 
 -2.4074719476577581e-02   2   3   3   1 
 +4.3880736104235533e-02   2   3   3   2 
 +0.0000000000000000e+00   2   3   3   3 
 +0.0000000000000000e+00   2   3   3   4 
 -4.9122973047588947e-02   2   3   4   1 
 +3.9963655526022310e-02   2   3   4   2 
 +0.0000000000000000e+00   2   3   4   3 
 +0.0000000000000000e+00   2   3   4   4 
 +0.0000000000000000e+00   2   4   1   1 
 +0.0000000000000000e+00   2   4   1   2 
 -5.7617860698981567e-02   2   4   1   3 
 -5.4828774410231117e-02   2   4   1   4 
 +0.0000000000000000e+00   2   4   2   1 
 +0.0000000000000000e+00   2   4   2   2 
 +3.9963655526022310e-02   2   4   2   3 
 +7.7219417101998616e-02   2   4   2   4 
 -5.7617860698981567e-02   2   4   3   1 
 +3.9963655526022310e-02   2   4   3   2 
 +0.0000000000000000e+00   2   4   3   3 
 +0.0000000000000000e+00   2   4   3   4 
 -5.4828774410231117e-02   2   4   4   1 
 +7.7219417101998616e-02   2   4   4   2 
 +0.0000000000000000e+00   2   4   4   3 
 +0.0000000000000000e+00   2   4   4   4 
 +0.0000000000000000e+00   3   1   1   1 
 +0.0000000000000000e+00   3   1   1   2 
 +5.2005540001694661e-02   3   1   1   3 
 +3.4634898952142050e-02   3   1   1   4 
 +0.0000000000000000e+00   3   1   2   1 
 +0.0000000000000000e+00   3   1   2   2 
 -2.4074719476577581e-02   3   1   2   3 
 -5.7617860698981567e-02   3   1   2   4 
 +5.2005540001694661e-02   3   1   3   1 
 -2.4074719476577581e-02   3   1   3   2 
 +0.0000000000000000e+00   3   1   3   3 
 +0.0000000000000000e+00   3   1   3   4 
 +3.4634898952142050e-02   3   1   4   1 
 -5.7617860698981567e-02   3   1   4   2 
 +0.0000000000000000e+00   3   1   4   3 
 +0.0000000000000000e+00   3   1   4   4 
 +0.0000000000000000e+00   3   2   1   1 
 +0.0000000000000000e+00   3   2   1   2 
 -2.4074719476577581e-02   3   2   1   3 
 -4.9122973047588947e-02   3   2   1   4 
 +0.0000000000000000e+00   3   2   2   1 
 +0.0000000000000000e+00   3   2   2   2 
 +4.3880736104235533e-02   3   2   2   3 
 +3.9963655526022310e-02   3   2   2   4 
 -2.4074719476577581e-02   3   2   3   1 
 +4.3880736104235533e-02   3   2   3   2 
 +0.0000000000000000e+00   3   2   3   3 
 +0.0000000000000000e+00   3   2   3   4 
 -4.9122973047588947e-02   3   2   4   1 
 +3.9963655526022310e-02   3   2   4   2 
 +0.0000000000000000e+00   3   2   4   3 
 +0.0000000000000000e+00   3   2   4   4 
 +4.1439114089583512e-01   3   3   1   1 
 +1.0670890901108950e-01   3   3   1   2 
 +0.0000000000000000e+00   3   3   1   3 
 +0.0000000000000000e+00   3   3   1   4 
 +1.0670890901108950e-01   3   3   2   1 
 +3.8468166358083861e-01   3   3   2   2 
 +0.0000000000000000e+00   3   3   2   3 
 +0.0000000000000000e+00   3   3   2   4 
 +0.0000000000000000e+00   3   3   3   1 
 +0.0000000000000000e+00   3   3   3   2 
 +4.6692031362898267e-01   3   3   3   3 
 -1.2891866471494370e-01   3   3   3   4 
 +0.0000000000000000e+00   3   3   4   1 
 +0.0000000000000000e+00   3   3   4   2 
 -1.2891866471494370e-01   3   3   4   3 
 +3.8028385037013268e-01   3   3   4   4 
 -8.6001479073451334e-02   3   4   1   1 
 -1.2081291064797470e-01   3   4   1   2 
 +0.0000000000000000e+00   3   4   1   3 
 +0.0000000000000000e+00   3   4   1   4 
 -1.2081291064797470e-01   3   4   2   1 
 -6.5745537847520186e-02   3   4   2   2 
 +0.0000000000000000e+00   3   4   2   3 
 +0.0000000000000000e+00   3   4   2   4 
 +0.0000000000000000e+00   3   4   3   1 
 +0.0000000000000000e+00   3   4   3   2 
 -1.2891866471494370e-01   3   4   3   3 
 +1.3787527005648650e-01   3   4   3   4 
 +0.0000000000000000e+00   3   4   4   1 
 +0.0000000000000000e+00   3   4   4   2 
 +1.3787527005648650e-01   3   4   4   3 
 -5.0967874886876707e-02   3   4   4   4 
 +0.0000000000000000e+00   4   1   1   1 
 +0.0000000000000000e+00   4   1   1   2 
 +3.4634898952142050e-02   4   1   1   3 
 +5.9998609274899042e-02   4   1   1   4 
 +0.0000000000000000e+00   4   1   2   1 
 +0.0000000000000000e+00   4   1   2   2 
 -4.9122973047588947e-02   4   1   2   3 
 -5.4828774410231117e-02   4   1   2   4 
 +3.4634898952142050e-02   4   1   3   1 
 -4.9122973047588947e-02   4   1   3   2 
 +0.0000000000000000e+00   4   1   3   3 
 +0.0000000000000000e+00   4   1   3   4 
 +5.9998609274899042e-02   4   1   4   1 
 -5.4828774410231117e-02   4   1   4   2 
 +0.0000000000000000e+00   4   1   4   3 
 +0.0000000000000000e+00   4   1   4   4 
 +0.0000000000000000e+00   4   2   1   1 
 +0.0000000000000000e+00   4   2   1   2 
 -5.7617860698981567e-02   4   2   1   3 
 -5.4828774410231117e-02   4   2   1   4 
 +0.0000000000000000e+00   4   2   2   1 
 +0.0000000000000000e+00   4   2   2   2 
 +3.9963655526022310e-02   4   2   2   3 
 +7.7219417101998616e-02   4   2   2   4 
 -5.7617860698981567e-02   4   2   3   1 
 +3.9963655526022310e-02   4   2   3   2 
 +0.0000000000000000e+00   4   2   3   3 
 +0.0000000000000000e+00   4   2   3   4 
 -5.4828774410231117e-02   4   2   4   1 
 +7.7219417101998616e-02   4   2   4   2 
 +0.0000000000000000e+00   4   2   4   3 
 +0.0000000000000000e+00   4   2   4   4 
 -8.6001479073451334e-02   4   3   1   1 
 -1.2081291064797470e-01   4   3   1   2 
 +0.0000000000000000e+00   4   3   1   3 
 +0.0000000000000000e+00   4   3   1   4 
 -1.2081291064797470e-01   4   3   2   1 
 -6.5745537847520186e-02   4   3   2   2 
 +0.0000000000000000e+00   4   3   2   3 
 +0.0000000000000000e+00   4   3   2   4 
 +0.0000000000000000e+00   4   3   3   1 
 +0.0000000000000000e+00   4   3   3   2 
 -1.2891866471494370e-01   4   3   3   3 
 +1.3787527005648650e-01   4   3   3   4 
 +0.0000000000000000e+00   4   3   4   1 
 +0.0000000000000000e+00   4   3   4   2 
 +1.3787527005648650e-01   4   3   4   3 
 -5.0967874886876707e-02   4   3   4   4 
 +3.5485258387309332e-01   4   4   1   1 
 +3.7273615376233728e-02   4   4   1   2 
 +0.0000000000000000e+00   4   4   1   3 
 +0.0000000000000000e+00   4   4   1   4 
 +3.7273615376233728e-02   4   4   2   1 
 +3.4222295170079892e-01   4   4   2   2 
 +0.0000000000000000e+00   4   4   2   3 
 +0.0000000000000000e+00   4   4   2   4 
 +0.0000000000000000e+00   4   4   3   1 
 +0.0000000000000000e+00   4   4   3   2 
 +3.8028385037013268e-01   4   4   3   3 
 -5.0967874886876707e-02   4   4   3   4 
 +0.0000000000000000e+00   4   4   4   1 
 +0.0000000000000000e+00   4   4   4   2 
 -5.0967874886876707e-02   4   4   4   3 
 +3.4964376242645151e-01   4   4   4   4 
 -1.5949972542952231e+00   1   1   0   0 
 -3.4129472067040090e-01   1   2   0   0 
 +0.0000000000000000e+00   1   3   0   0 
 +0.0000000000000000e+00   1   4   0   0 
 -3.4129472067040090e-01   2   1   0   0 
 -1.4034641031450870e+00   2   2   0   0 
 +0.0000000000000000e+00   2   3   0   0 
 +0.0000000000000000e+00   2   4   0   0 
 +0.0000000000000000e+00   3   1   0   0 
 +0.0000000000000000e+00   3   2   0   0 
 -1.6770346533891440e+00   3   3   0   0 
 +3.3555696665553059e-01   3   4   0   0 
 +0.0000000000000000e+00   4   1   0   0 
 +0.0000000000000000e+00   4   2   0   0 
 +3.3555696665553059e-01   4   3   0   0 
 -1.3129011260421670e+00   4   4   0   0 
 -7.1470501700595349e+01   0   0   0   0 
