 &FCI NORB=  4,NELEC=  4,MS2= 0,
  ORBSYM=1,1,3,3,
  ISYM=1,
 /
  0.7770633837286191E+00   1   1   1   1
 -0.1065743268788129E-01   2   1   1   1
  0.6489233985608328E-02   2   1   2   1
  0.2885285281448037E+00   2   2   1   1
  0.4950638432981602E-02   2   2   2   1
  0.2597964405925697E+00   2   2   2   2
  0.6563630561637870E+00   3   3   1   1
 -0.1011830328825114E-01   3   3   2   1
  0.3056901385823028E+00   3   3   2   2
  0.7542530218333172E+00   3   3   3   3
 -0.7971838190457001E-01   4   3   1   1
  0.3941751529687159E-02   4   3   2   1
 -0.4562849013314108E-02   4   3   2   2
 -0.8605351169569644E-01   4   3   3   3
  0.2076514919495364E-01   4   3   4   3
  0.2615005051655797E+00   4   4   1   1
  0.4895065100225138E-02   4   4   2   1
  0.2471399073399938E+00   4   4   2   2
  0.2827570276275863E+00   4   4   3   3
 -0.1304243217310930E-02   4   4   4   3
  0.2547534234678116E+00   4   4   4   4
  0.3933346929492781E-01   3   1   3   1
  0.8772075712953953E-03   3   2   3   1
  0.8394486769107350E-02   3   2   3   2
 -0.7064541246492500E-02   4   1   3   1
  0.1146587613768032E-02   4   1   3   2
  0.3191934958632147E-02   4   1   4   1
  0.3547088821257980E-02   4   2   3   1
  0.1328329929483296E-01   4   2   3   2
  0.5748707725164743E-02   4   2   4   1
  0.6688978844655871E-01   4   2   4   2
 -0.2664246949227585E+01   1   1   0   0
  0.3177299456753957E-01   2   1   0   0
 -0.1017646765196346E+01   2   2   0   0
 -0.2856981614468530E+01   3   3   0   0
  0.2384242935232892E+00   4   3   0   0
 -0.8497152824074052E+00   4   4   0   0
 -0.6898952553357718E+02   0   0   0   0
