 &FCI NORB=  4,NELEC=  4,MS2= 0, 
   ORBSYM=1,1,1,1,
   ISYM=1,
  /
 +7.7706338372861905e-01   1   1   1   1 
 -1.0657432687881290e-02   1   1   1   2 
 +0.0000000000000000e+00   1   1   1   3 
 +0.0000000000000000e+00   1   1   1   4 
 -1.0657432687881290e-02   1   1   2   1 
 +2.8852852814480368e-01   1   1   2   2 
 +0.0000000000000000e+00   1   1   2   3 
 +0.0000000000000000e+00   1   1   2   4 
 +0.0000000000000000e+00   1   1   3   1 
 +0.0000000000000000e+00   1   1   3   2 
 +6.5636305616378698e-01   1   1   3   3 
 -7.9718381904570007e-02   1   1   3   4 
 +0.0000000000000000e+00   1   1   4   1 
 +0.0000000000000000e+00   1   1   4   2 
 -7.9718381904570007e-02   1   1   4   3 
 +2.6150050516557971e-01   1   1   4   4 
 -1.0657432687881290e-02   1   2   1   1 
 +6.4892339856083281e-03   1   2   1   2 
 +0.0000000000000000e+00   1   2   1   3 
 +0.0000000000000000e+00   1   2   1   4 
 +6.4892339856083281e-03   1   2   2   1 
 +4.9506384329816022e-03   1   2   2   2 
 +0.0000000000000000e+00   1   2   2   3 
 +0.0000000000000000e+00   1   2   2   4 
 +0.0000000000000000e+00   1   2   3   1 
 +0.0000000000000000e+00   1   2   3   2 
 -1.0118303288251140e-02   1   2   3   3 
 +3.9417515296871590e-03   1   2   3   4 
 +0.0000000000000000e+00   1   2   4   1 
 +0.0000000000000000e+00   1   2   4   2 
 +3.9417515296871590e-03   1   2   4   3 
 +4.8950651002251377e-03   1   2   4   4 
 +0.0000000000000000e+00   1   3   1   1 
 +0.0000000000000000e+00   1   3   1   2 
 +3.9333469294927807e-02   1   3   1   3 
 -7.0645412464924997e-03   1   3   1   4 
 +0.0000000000000000e+00   1   3   2   1 
 +0.0000000000000000e+00   1   3   2   2 
 +8.7720757129539529e-04   1   3   2   3 
 +3.5470888212579799e-03   1   3   2   4 
 +3.9333469294927807e-02   1   3   3   1 
 +8.7720757129539529e-04   1   3   3   2 
 +0.0000000000000000e+00   1   3   3   3 
 +0.0000000000000000e+00   1   3   3   4 
 -7.0645412464924997e-03   1   3   4   1 
 +3.5470888212579799e-03   1   3   4   2 
 +0.0000000000000000e+00   1   3   4   3 
 +0.0000000000000000e+00   1   3   4   4 
 +0.0000000000000000e+00   1   4   1   1 
 +0.0000000000000000e+00   1   4   1   2 
 -7.0645412464924997e-03   1   4   1   3 
 +3.1919349586321472e-03   1   4   1   4 
 +0.0000000000000000e+00   1   4   2   1 
 +0.0000000000000000e+00   1   4   2   2 
 +1.1465876137680320e-03   1   4   2   3 
 +5.7487077251647430e-03   1   4   2   4 
 -7.0645412464924997e-03   1   4   3   1 
 +1.1465876137680320e-03   1   4   3   2 
 +0.0000000000000000e+00   1   4   3   3 
 +0.0000000000000000e+00   1   4   3   4 
 +3.1919349586321472e-03   1   4   4   1 
 +5.7487077251647430e-03   1   4   4   2 
 +0.0000000000000000e+00   1   4   4   3 
 +0.0000000000000000e+00   1   4   4   4 
 -1.0657432687881290e-02   2   1   1   1 
 +6.4892339856083281e-03   2   1   1   2 
 +0.0000000000000000e+00   2   1   1   3 
 +0.0000000000000000e+00   2   1   1   4 
 +6.4892339856083281e-03   2   1   2   1 
 +4.9506384329816022e-03   2   1   2   2 
 +0.0000000000000000e+00   2   1   2   3 
 +0.0000000000000000e+00   2   1   2   4 
 +0.0000000000000000e+00   2   1   3   1 
 +0.0000000000000000e+00   2   1   3   2 
 -1.0118303288251140e-02   2   1   3   3 
 +3.9417515296871590e-03   2   1   3   4 
 +0.0000000000000000e+00   2   1   4   1 
 +0.0000000000000000e+00   2   1   4   2 
 +3.9417515296871590e-03   2   1   4   3 
 +4.8950651002251377e-03   2   1   4   4 
 +2.8852852814480368e-01   2   2   1   1 
 +4.9506384329816022e-03   2   2   1   2 
 +0.0000000000000000e+00   2   2   1   3 
 +0.0000000000000000e+00   2   2   1   4 
 +4.9506384329816022e-03   2   2   2   1 
 +2.5979644059256968e-01   2   2   2   2 
 +0.0000000000000000e+00   2   2   2   3 
 +0.0000000000000000e+00   2   2   2   4 
 +0.0000000000000000e+00   2   2   3   1 
 +0.0000000000000000e+00   2   2   3   2 
 +3.0569013858230282e-01   2   2   3   3 
 -4.5628490133141084e-03   2   2   3   4 
 +0.0000000000000000e+00   2   2   4   1 
 +0.0000000000000000e+00   2   2   4   2 
 -4.5628490133141084e-03   2   2   4   3 
 +2.4713990733999380e-01   2   2   4   4 
 +0.0000000000000000e+00   2   3   1   1 
 +0.0000000000000000e+00   2   3   1   2 
 +8.7720757129539529e-04   2   3   1   3 
 +1.1465876137680320e-03   2   3   1   4 
 +0.0000000000000000e+00   2   3   2   1 
 +0.0000000000000000e+00   2   3   2   2 
 +8.3944867691073503e-03   2   3   2   3 
 +1.3283299294832960e-02   2   3   2   4 
 +8.7720757129539529e-04   2   3   3   1 
 +8.3944867691073503e-03   2   3   3   2 
 +0.0000000000000000e+00   2   3   3   3 
 +0.0000000000000000e+00   2   3   3   4 
 +1.1465876137680320e-03   2   3   4   1 
 +1.3283299294832960e-02   2   3   4   2 
 +0.0000000000000000e+00   2   3   4   3 
 +0.0000000000000000e+00   2   3   4   4 
 +0.0000000000000000e+00   2   4   1   1 
 +0.0000000000000000e+00   2   4   1   2 
 +3.5470888212579799e-03   2   4   1   3 
 +5.7487077251647430e-03   2   4   1   4 
 +0.0000000000000000e+00   2   4   2   1 
 +0.0000000000000000e+00   2   4   2   2 
 +1.3283299294832960e-02   2   4   2   3 
 +6.6889788446558712e-02   2   4   2   4 
 +3.5470888212579799e-03   2   4   3   1 
 +1.3283299294832960e-02   2   4   3   2 
 +0.0000000000000000e+00   2   4   3   3 
 +0.0000000000000000e+00   2   4   3   4 
 +5.7487077251647430e-03   2   4   4   1 
 +6.6889788446558712e-02   2   4   4   2 
 +0.0000000000000000e+00   2   4   4   3 
 +0.0000000000000000e+00   2   4   4   4 
 +0.0000000000000000e+00   3   1   1   1 
 +0.0000000000000000e+00   3   1   1   2 
 +3.9333469294927807e-02   3   1   1   3 
 -7.0645412464924997e-03   3   1   1   4 
 +0.0000000000000000e+00   3   1   2   1 
 +0.0000000000000000e+00   3   1   2   2 
 +8.7720757129539529e-04   3   1   2   3 
 +3.5470888212579799e-03   3   1   2   4 
 +3.9333469294927807e-02   3   1   3   1 
 +8.7720757129539529e-04   3   1   3   2 
 +0.0000000000000000e+00   3   1   3   3 
 +0.0000000000000000e+00   3   1   3   4 
 -7.0645412464924997e-03   3   1   4   1 
 +3.5470888212579799e-03   3   1   4   2 
 +0.0000000000000000e+00   3   1   4   3 
 +0.0000000000000000e+00   3   1   4   4 
 +0.0000000000000000e+00   3   2   1   1 
 +0.0000000000000000e+00   3   2   1   2 
 +8.7720757129539529e-04   3   2   1   3 
 +1.1465876137680320e-03   3   2   1   4 
 +0.0000000000000000e+00   3   2   2   1 
 +0.0000000000000000e+00   3   2   2   2 
 +8.3944867691073503e-03   3   2   2   3 
 +1.3283299294832960e-02   3   2   2   4 
 +8.7720757129539529e-04   3   2   3   1 
 +8.3944867691073503e-03   3   2   3   2 
 +0.0000000000000000e+00   3   2   3   3 
 +0.0000000000000000e+00   3   2   3   4 
 +1.1465876137680320e-03   3   2   4   1 
 +1.3283299294832960e-02   3   2   4   2 
 +0.0000000000000000e+00   3   2   4   3 
 +0.0000000000000000e+00   3   2   4   4 
 +6.5636305616378698e-01   3   3   1   1 
 -1.0118303288251140e-02   3   3   1   2 
 +0.0000000000000000e+00   3   3   1   3 
 +0.0000000000000000e+00   3   3   1   4 
 -1.0118303288251140e-02   3   3   2   1 
 +3.0569013858230282e-01   3   3   2   2 
 +0.0000000000000000e+00   3   3   2   3 
 +0.0000000000000000e+00   3   3   2   4 
 +0.0000000000000000e+00   3   3   3   1 
 +0.0000000000000000e+00   3   3   3   2 
 +7.5425302183331722e-01   3   3   3   3 
 -8.6053511695696444e-02   3   3   3   4 
 +0.0000000000000000e+00   3   3   4   1 
 +0.0000000000000000e+00   3   3   4   2 
 -8.6053511695696444e-02   3   3   4   3 
 +2.8275702762758631e-01   3   3   4   4 
 -7.9718381904570007e-02   3   4   1   1 
 +3.9417515296871590e-03   3   4   1   2 
 +0.0000000000000000e+00   3   4   1   3 
 +0.0000000000000000e+00   3   4   1   4 
 +3.9417515296871590e-03   3   4   2   1 
 -4.5628490133141084e-03   3   4   2   2 
 +0.0000000000000000e+00   3   4   2   3 
 +0.0000000000000000e+00   3   4   2   4 
 +0.0000000000000000e+00   3   4   3   1 
 +0.0000000000000000e+00   3   4   3   2 
 -8.6053511695696444e-02   3   4   3   3 
 +2.0765149194953640e-02   3   4   3   4 
 +0.0000000000000000e+00   3   4   4   1 
 +0.0000000000000000e+00   3   4   4   2 
 +2.0765149194953640e-02   3   4   4   3 
 -1.3042432173109300e-03   3   4   4   4 
 +0.0000000000000000e+00   4   1   1   1 
 +0.0000000000000000e+00   4   1   1   2 
 -7.0645412464924997e-03   4   1   1   3 
 +3.1919349586321472e-03   4   1   1   4 
 +0.0000000000000000e+00   4   1   2   1 
 +0.0000000000000000e+00   4   1   2   2 
 +1.1465876137680320e-03   4   1   2   3 
 +5.7487077251647430e-03   4   1   2   4 
 -7.0645412464924997e-03   4   1   3   1 
 +1.1465876137680320e-03   4   1   3   2 
 +0.0000000000000000e+00   4   1   3   3 
 +0.0000000000000000e+00   4   1   3   4 
 +3.1919349586321472e-03   4   1   4   1 
 +5.7487077251647430e-03   4   1   4   2 
 +0.0000000000000000e+00   4   1   4   3 
 +0.0000000000000000e+00   4   1   4   4 
 +0.0000000000000000e+00   4   2   1   1 
 +0.0000000000000000e+00   4   2   1   2 
 +3.5470888212579799e-03   4   2   1   3 
 +5.7487077251647430e-03   4   2   1   4 
 +0.0000000000000000e+00   4   2   2   1 
 +0.0000000000000000e+00   4   2   2   2 
 +1.3283299294832960e-02   4   2   2   3 
 +6.6889788446558712e-02   4   2   2   4 
 +3.5470888212579799e-03   4   2   3   1 
 +1.3283299294832960e-02   4   2   3   2 
 +0.0000000000000000e+00   4   2   3   3 
 +0.0000000000000000e+00   4   2   3   4 
 +5.7487077251647430e-03   4   2   4   1 
 +6.6889788446558712e-02   4   2   4   2 
 +0.0000000000000000e+00   4   2   4   3 
 +0.0000000000000000e+00   4   2   4   4 
 -7.9718381904570007e-02   4   3   1   1 
 +3.9417515296871590e-03   4   3   1   2 
 +0.0000000000000000e+00   4   3   1   3 
 +0.0000000000000000e+00   4   3   1   4 
 +3.9417515296871590e-03   4   3   2   1 
 -4.5628490133141084e-03   4   3   2   2 
 +0.0000000000000000e+00   4   3   2   3 
 +0.0000000000000000e+00   4   3   2   4 
 +0.0000000000000000e+00   4   3   3   1 
 +0.0000000000000000e+00   4   3   3   2 
 -8.6053511695696444e-02   4   3   3   3 
 +2.0765149194953640e-02   4   3   3   4 
 +0.0000000000000000e+00   4   3   4   1 
 +0.0000000000000000e+00   4   3   4   2 
 +2.0765149194953640e-02   4   3   4   3 
 -1.3042432173109300e-03   4   3   4   4 
 +2.6150050516557971e-01   4   4   1   1 
 +4.8950651002251377e-03   4   4   1   2 
 +0.0000000000000000e+00   4   4   1   3 
 +0.0000000000000000e+00   4   4   1   4 
 +4.8950651002251377e-03   4   4   2   1 
 +2.4713990733999380e-01   4   4   2   2 
 +0.0000000000000000e+00   4   4   2   3 
 +0.0000000000000000e+00   4   4   2   4 
 +0.0000000000000000e+00   4   4   3   1 
 +0.0000000000000000e+00   4   4   3   2 
 +2.8275702762758631e-01   4   4   3   3 
 -1.3042432173109300e-03   4   4   3   4 
 +0.0000000000000000e+00   4   4   4   1 
 +0.0000000000000000e+00   4   4   4   2 
 -1.3042432173109300e-03   4   4   4   3 
 +2.5475342346781160e-01   4   4   4   4 
 -2.6642469492275849e+00   1   1   0   0 
 +3.1772994567539570e-02   1   2   0   0 
 +0.0000000000000000e+00   1   3   0   0 
 +0.0000000000000000e+00   1   4   0   0 
 +3.1772994567539570e-02   2   1   0   0 
 -1.0176467651963459e+00   2   2   0   0 
 +0.0000000000000000e+00   2   3   0   0 
 +0.0000000000000000e+00   2   4   0   0 
 +0.0000000000000000e+00   3   1   0   0 
 +0.0000000000000000e+00   3   2   0   0 
 -2.8569816144685301e+00   3   3   0   0 
 +2.3842429352328920e-01   3   4   0   0 
 +0.0000000000000000e+00   4   1   0   0 
 +0.0000000000000000e+00   4   2   0   0 
 +2.3842429352328920e-01   4   3   0   0 
 -8.4971528240740524e-01   4   4   0   0 
 -6.8989525533577179e+01   0   0   0   0 
