 &FCI NORB=  4,NELEC=  4,MS2= 0,
  ORBSYM=1,1,3,3,
  ISYM=1,
 /
  0.8020268181563703E+00   1   1   1   1
  0.6127603245171810E-02   2   1   1   1
  0.5260867760098157E-02   2   1   2   1
  0.2851321013891567E+00   2   2   1   1
  0.5761347639546721E-02   2   2   2   1
  0.2590374533814626E+00   2   2   2   2
  0.6843099897452392E+00   3   3   1   1
  0.1575492256063016E-02   3   3   2   1
  0.3032802184281782E+00   3   3   2   2
  0.8069231059594487E+00   3   3   3   3
 -0.7222383980556094E-01   4   3   1   1
  0.7800486787527539E-03   4   3   2   1
 -0.3659403072446277E-02   4   3   2   2
 -0.8312742566080783E-01   4   3   3   3
  0.1683304082598868E-01   4   3   4   3
  0.2572546407986768E+00   4   4   1   1
  0.4613354431619698E-02   4   4   2   1
  0.2459435874540348E+00   4   4   2   2
  0.2792301287024197E+00   4   4   3   3
 -0.4830992008026114E-03   4   4   4   3
  0.2543973967871914E+00   4   4   4   4
  0.4004276863459649E-01   3   1   3   1
  0.9897106642883838E-03   3   2   3   1
  0.6966479849662039E-02   3   2   3   2
 -0.6601242136555256E-02   4   1   3   1
  0.1338923933170855E-03   4   1   3   2
  0.2131559984937742E-02   4   1   4   1
 -0.1951603867071218E-03   4   2   3   1
  0.1088258844005613E-01   4   2   3   2
  0.2782239140036194E-02   4   2   4   1
  0.6673223732831550E-01   4   2   4   2
 -0.2762418740824247E+01   1   1   0   0
 -0.8286748144067158E-02   2   1   0   0
 -0.1005428764949244E+01   2   2   0   0
 -0.3036884512415098E+01   3   3   0   0
  0.2209719828445291E+00   4   3   0   0
 -0.8378010350321847E+00   4   4   0   0
 -0.6839985087520182E+02   0   0   0   0
