 &FCI NORB=  4,NELEC=  4,MS2= 0, 
   ORBSYM=1,1,1,1,
   ISYM=1,
  /
 +8.0202681815637034e-01   1   1   1   1 
 +6.1276032451718096e-03   1   1   1   2 
 +0.0000000000000000e+00   1   1   1   3 
 +0.0000000000000000e+00   1   1   1   4 
 +6.1276032451718096e-03   1   1   2   1 
 +2.8513210138915668e-01   1   1   2   2 
 +0.0000000000000000e+00   1   1   2   3 
 +0.0000000000000000e+00   1   1   2   4 
 +0.0000000000000000e+00   1   1   3   1 
 +0.0000000000000000e+00   1   1   3   2 
 +6.8430998974523916e-01   1   1   3   3 
 -7.2223839805560935e-02   1   1   3   4 
 +0.0000000000000000e+00   1   1   4   1 
 +0.0000000000000000e+00   1   1   4   2 
 -7.2223839805560935e-02   1   1   4   3 
 +2.5725464079867683e-01   1   1   4   4 
 +6.1276032451718096e-03   1   2   1   1 
 +5.2608677600981570e-03   1   2   1   2 
 +0.0000000000000000e+00   1   2   1   3 
 +0.0000000000000000e+00   1   2   1   4 
 +5.2608677600981570e-03   1   2   2   1 
 +5.7613476395467211e-03   1   2   2   2 
 +0.0000000000000000e+00   1   2   2   3 
 +0.0000000000000000e+00   1   2   2   4 
 +0.0000000000000000e+00   1   2   3   1 
 +0.0000000000000000e+00   1   2   3   2 
 +1.5754922560630160e-03   1   2   3   3 
 +7.8004867875275385e-04   1   2   3   4 
 +0.0000000000000000e+00   1   2   4   1 
 +0.0000000000000000e+00   1   2   4   2 
 +7.8004867875275385e-04   1   2   4   3 
 +4.6133544316196984e-03   1   2   4   4 
 +0.0000000000000000e+00   1   3   1   1 
 +0.0000000000000000e+00   1   3   1   2 
 +4.0042768634596493e-02   1   3   1   3 
 -6.6012421365552560e-03   1   3   1   4 
 +0.0000000000000000e+00   1   3   2   1 
 +0.0000000000000000e+00   1   3   2   2 
 +9.8971066428838383e-04   1   3   2   3 
 -1.9516038670712180e-04   1   3   2   4 
 +4.0042768634596493e-02   1   3   3   1 
 +9.8971066428838383e-04   1   3   3   2 
 +0.0000000000000000e+00   1   3   3   3 
 +0.0000000000000000e+00   1   3   3   4 
 -6.6012421365552560e-03   1   3   4   1 
 -1.9516038670712180e-04   1   3   4   2 
 +0.0000000000000000e+00   1   3   4   3 
 +0.0000000000000000e+00   1   3   4   4 
 +0.0000000000000000e+00   1   4   1   1 
 +0.0000000000000000e+00   1   4   1   2 
 -6.6012421365552560e-03   1   4   1   3 
 +2.1315599849377419e-03   1   4   1   4 
 +0.0000000000000000e+00   1   4   2   1 
 +0.0000000000000000e+00   1   4   2   2 
 +1.3389239331708551e-04   1   4   2   3 
 +2.7822391400361942e-03   1   4   2   4 
 -6.6012421365552560e-03   1   4   3   1 
 +1.3389239331708551e-04   1   4   3   2 
 +0.0000000000000000e+00   1   4   3   3 
 +0.0000000000000000e+00   1   4   3   4 
 +2.1315599849377419e-03   1   4   4   1 
 +2.7822391400361942e-03   1   4   4   2 
 +0.0000000000000000e+00   1   4   4   3 
 +0.0000000000000000e+00   1   4   4   4 
 +6.1276032451718096e-03   2   1   1   1 
 +5.2608677600981570e-03   2   1   1   2 
 +0.0000000000000000e+00   2   1   1   3 
 +0.0000000000000000e+00   2   1   1   4 
 +5.2608677600981570e-03   2   1   2   1 
 +5.7613476395467211e-03   2   1   2   2 
 +0.0000000000000000e+00   2   1   2   3 
 +0.0000000000000000e+00   2   1   2   4 
 +0.0000000000000000e+00   2   1   3   1 
 +0.0000000000000000e+00   2   1   3   2 
 +1.5754922560630160e-03   2   1   3   3 
 +7.8004867875275385e-04   2   1   3   4 
 +0.0000000000000000e+00   2   1   4   1 
 +0.0000000000000000e+00   2   1   4   2 
 +7.8004867875275385e-04   2   1   4   3 
 +4.6133544316196984e-03   2   1   4   4 
 +2.8513210138915668e-01   2   2   1   1 
 +5.7613476395467211e-03   2   2   1   2 
 +0.0000000000000000e+00   2   2   1   3 
 +0.0000000000000000e+00   2   2   1   4 
 +5.7613476395467211e-03   2   2   2   1 
 +2.5903745338146261e-01   2   2   2   2 
 +0.0000000000000000e+00   2   2   2   3 
 +0.0000000000000000e+00   2   2   2   4 
 +0.0000000000000000e+00   2   2   3   1 
 +0.0000000000000000e+00   2   2   3   2 
 +3.0328021842817821e-01   2   2   3   3 
 -3.6594030724462772e-03   2   2   3   4 
 +0.0000000000000000e+00   2   2   4   1 
 +0.0000000000000000e+00   2   2   4   2 
 -3.6594030724462772e-03   2   2   4   3 
 +2.4594358745403480e-01   2   2   4   4 
 +0.0000000000000000e+00   2   3   1   1 
 +0.0000000000000000e+00   2   3   1   2 
 +9.8971066428838383e-04   2   3   1   3 
 +1.3389239331708551e-04   2   3   1   4 
 +0.0000000000000000e+00   2   3   2   1 
 +0.0000000000000000e+00   2   3   2   2 
 +6.9664798496620389e-03   2   3   2   3 
 +1.0882588440056131e-02   2   3   2   4 
 +9.8971066428838383e-04   2   3   3   1 
 +6.9664798496620389e-03   2   3   3   2 
 +0.0000000000000000e+00   2   3   3   3 
 +0.0000000000000000e+00   2   3   3   4 
 +1.3389239331708551e-04   2   3   4   1 
 +1.0882588440056131e-02   2   3   4   2 
 +0.0000000000000000e+00   2   3   4   3 
 +0.0000000000000000e+00   2   3   4   4 
 +0.0000000000000000e+00   2   4   1   1 
 +0.0000000000000000e+00   2   4   1   2 
 -1.9516038670712180e-04   2   4   1   3 
 +2.7822391400361942e-03   2   4   1   4 
 +0.0000000000000000e+00   2   4   2   1 
 +0.0000000000000000e+00   2   4   2   2 
 +1.0882588440056131e-02   2   4   2   3 
 +6.6732237328315500e-02   2   4   2   4 
 -1.9516038670712180e-04   2   4   3   1 
 +1.0882588440056131e-02   2   4   3   2 
 +0.0000000000000000e+00   2   4   3   3 
 +0.0000000000000000e+00   2   4   3   4 
 +2.7822391400361942e-03   2   4   4   1 
 +6.6732237328315500e-02   2   4   4   2 
 +0.0000000000000000e+00   2   4   4   3 
 +0.0000000000000000e+00   2   4   4   4 
 +0.0000000000000000e+00   3   1   1   1 
 +0.0000000000000000e+00   3   1   1   2 
 +4.0042768634596493e-02   3   1   1   3 
 -6.6012421365552560e-03   3   1   1   4 
 +0.0000000000000000e+00   3   1   2   1 
 +0.0000000000000000e+00   3   1   2   2 
 +9.8971066428838383e-04   3   1   2   3 
 -1.9516038670712180e-04   3   1   2   4 
 +4.0042768634596493e-02   3   1   3   1 
 +9.8971066428838383e-04   3   1   3   2 
 +0.0000000000000000e+00   3   1   3   3 
 +0.0000000000000000e+00   3   1   3   4 
 -6.6012421365552560e-03   3   1   4   1 
 -1.9516038670712180e-04   3   1   4   2 
 +0.0000000000000000e+00   3   1   4   3 
 +0.0000000000000000e+00   3   1   4   4 
 +0.0000000000000000e+00   3   2   1   1 
 +0.0000000000000000e+00   3   2   1   2 
 +9.8971066428838383e-04   3   2   1   3 
 +1.3389239331708551e-04   3   2   1   4 
 +0.0000000000000000e+00   3   2   2   1 
 +0.0000000000000000e+00   3   2   2   2 
 +6.9664798496620389e-03   3   2   2   3 
 +1.0882588440056131e-02   3   2   2   4 
 +9.8971066428838383e-04   3   2   3   1 
 +6.9664798496620389e-03   3   2   3   2 
 +0.0000000000000000e+00   3   2   3   3 
 +0.0000000000000000e+00   3   2   3   4 
 +1.3389239331708551e-04   3   2   4   1 
 +1.0882588440056131e-02   3   2   4   2 
 +0.0000000000000000e+00   3   2   4   3 
 +0.0000000000000000e+00   3   2   4   4 
 +6.8430998974523916e-01   3   3   1   1 
 +1.5754922560630160e-03   3   3   1   2 
 +0.0000000000000000e+00   3   3   1   3 
 +0.0000000000000000e+00   3   3   1   4 
 +1.5754922560630160e-03   3   3   2   1 
 +3.0328021842817821e-01   3   3   2   2 
 +0.0000000000000000e+00   3   3   2   3 
 +0.0000000000000000e+00   3   3   2   4 
 +0.0000000000000000e+00   3   3   3   1 
 +0.0000000000000000e+00   3   3   3   2 
 +8.0692310595944872e-01   3   3   3   3 
 -8.3127425660807830e-02   3   3   3   4 
 +0.0000000000000000e+00   3   3   4   1 
 +0.0000000000000000e+00   3   3   4   2 
 -8.3127425660807830e-02   3   3   4   3 
 +2.7923012870241970e-01   3   3   4   4 
 -7.2223839805560935e-02   3   4   1   1 
 +7.8004867875275385e-04   3   4   1   2 
 +0.0000000000000000e+00   3   4   1   3 
 +0.0000000000000000e+00   3   4   1   4 
 +7.8004867875275385e-04   3   4   2   1 
 -3.6594030724462772e-03   3   4   2   2 
 +0.0000000000000000e+00   3   4   2   3 
 +0.0000000000000000e+00   3   4   2   4 
 +0.0000000000000000e+00   3   4   3   1 
 +0.0000000000000000e+00   3   4   3   2 
 -8.3127425660807830e-02   3   4   3   3 
 +1.6833040825988681e-02   3   4   3   4 
 +0.0000000000000000e+00   3   4   4   1 
 +0.0000000000000000e+00   3   4   4   2 
 +1.6833040825988681e-02   3   4   4   3 
 -4.8309920080261143e-04   3   4   4   4 
 +0.0000000000000000e+00   4   1   1   1 
 +0.0000000000000000e+00   4   1   1   2 
 -6.6012421365552560e-03   4   1   1   3 
 +2.1315599849377419e-03   4   1   1   4 
 +0.0000000000000000e+00   4   1   2   1 
 +0.0000000000000000e+00   4   1   2   2 
 +1.3389239331708551e-04   4   1   2   3 
 +2.7822391400361942e-03   4   1   2   4 
 -6.6012421365552560e-03   4   1   3   1 
 +1.3389239331708551e-04   4   1   3   2 
 +0.0000000000000000e+00   4   1   3   3 
 +0.0000000000000000e+00   4   1   3   4 
 +2.1315599849377419e-03   4   1   4   1 
 +2.7822391400361942e-03   4   1   4   2 
 +0.0000000000000000e+00   4   1   4   3 
 +0.0000000000000000e+00   4   1   4   4 
 +0.0000000000000000e+00   4   2   1   1 
 +0.0000000000000000e+00   4   2   1   2 
 -1.9516038670712180e-04   4   2   1   3 
 +2.7822391400361942e-03   4   2   1   4 
 +0.0000000000000000e+00   4   2   2   1 
 +0.0000000000000000e+00   4   2   2   2 
 +1.0882588440056131e-02   4   2   2   3 
 +6.6732237328315500e-02   4   2   2   4 
 -1.9516038670712180e-04   4   2   3   1 
 +1.0882588440056131e-02   4   2   3   2 
 +0.0000000000000000e+00   4   2   3   3 
 +0.0000000000000000e+00   4   2   3   4 
 +2.7822391400361942e-03   4   2   4   1 
 +6.6732237328315500e-02   4   2   4   2 
 +0.0000000000000000e+00   4   2   4   3 
 +0.0000000000000000e+00   4   2   4   4 
 -7.2223839805560935e-02   4   3   1   1 
 +7.8004867875275385e-04   4   3   1   2 
 +0.0000000000000000e+00   4   3   1   3 
 +0.0000000000000000e+00   4   3   1   4 
 +7.8004867875275385e-04   4   3   2   1 
 -3.6594030724462772e-03   4   3   2   2 
 +0.0000000000000000e+00   4   3   2   3 
 +0.0000000000000000e+00   4   3   2   4 
 +0.0000000000000000e+00   4   3   3   1 
 +0.0000000000000000e+00   4   3   3   2 
 -8.3127425660807830e-02   4   3   3   3 
 +1.6833040825988681e-02   4   3   3   4 
 +0.0000000000000000e+00   4   3   4   1 
 +0.0000000000000000e+00   4   3   4   2 
 +1.6833040825988681e-02   4   3   4   3 
 -4.8309920080261143e-04   4   3   4   4 
 +2.5725464079867683e-01   4   4   1   1 
 +4.6133544316196984e-03   4   4   1   2 
 +0.0000000000000000e+00   4   4   1   3 
 +0.0000000000000000e+00   4   4   1   4 
 +4.6133544316196984e-03   4   4   2   1 
 +2.4594358745403480e-01   4   4   2   2 
 +0.0000000000000000e+00   4   4   2   3 
 +0.0000000000000000e+00   4   4   2   4 
 +0.0000000000000000e+00   4   4   3   1 
 +0.0000000000000000e+00   4   4   3   2 
 +2.7923012870241970e-01   4   4   3   3 
 -4.8309920080261143e-04   4   4   3   4 
 +0.0000000000000000e+00   4   4   4   1 
 +0.0000000000000000e+00   4   4   4   2 
 -4.8309920080261143e-04   4   4   4   3 
 +2.5439739678719142e-01   4   4   4   4 
 -2.7624187408242471e+00   1   1   0   0 
 -8.2867481440671575e-03   1   2   0   0 
 +0.0000000000000000e+00   1   3   0   0 
 +0.0000000000000000e+00   1   4   0   0 
 -8.2867481440671575e-03   2   1   0   0 
 -1.0054287649492439e+00   2   2   0   0 
 +0.0000000000000000e+00   2   3   0   0 
 +0.0000000000000000e+00   2   4   0   0 
 +0.0000000000000000e+00   3   1   0   0 
 +0.0000000000000000e+00   3   2   0   0 
 -3.0368845124150980e+00   3   3   0   0 
 +2.2097198284452910e-01   3   4   0   0 
 +0.0000000000000000e+00   4   1   0   0 
 +0.0000000000000000e+00   4   2   0   0 
 +2.2097198284452910e-01   4   3   0   0 
 -8.3780103503218473e-01   4   4   0   0 
 -6.8399850875201821e+01   0   0   0   0 
