
 Primary working directories    : /scratch/veis/Molpro_96359
 Secondary working directories  : /scratch/veis/Molpro_96359
 Wavefunction directory         : /home/veis/zkousky/h2o_disoc/r_0.7/
 Main file repository           : /scratch/veis/Molpro_96359/

 SHA1      : 2c68d29c09da70e1723824271fadde4bcd5f07a0
 ARCHNAME  : Linux/x86_64
 FC        : /usr/local/programs/common/intel/compiler/2011.5.220/composerxe-2011.5.220/bin/intel64/ifort
 FCVERSION : 12.0.5
 BLASLIB   : -L/usr/local/programs/common/intel/compiler/2011.5.220/composerxe-2011.5.220/mkl/lib/intel64 -lmkl_intel_ilp64 -lmkl_sequential -lmkl_core
 id        : jhinst

 Nodes     nprocs
 b04          7
 Number of processes for MPI-2 version of Molpro:   nprocs(total)=    8   nprocs(compute)=    7   nprocs(helper)=    1
 ga_uses_ma=false, calling ma_init with nominal heap.
 GA-space will be limited to   8.0 MW (determined by -G option)

 Using customized tuning parameters: mindgm=12; mindgv=20; mindgc=4; mindgr=1; noblas=0; minvec=7
 default implementation of scratch files=sf  

 ***,h2o
 memory,500m
 
 r=0.9584*0.7
 a=104.45
 
                                                                                 !symmetry,nosym
 geometry={angstrom
   O;
   H,1,r;
   H,1,r,2,a;}
 
 basis=cc-pVTZ
 spherical
 
 {rhf
 shift,-1.0,-0.5
 wf,10,1,0
 orbprint,6}
 
 {fci
 wf,10,1,0
 core,2,1,0,0
 occ,4,1,2,0
                                                                                 !state,4
                                                                                 !dump
 }
 
 {fci
 wf,10,1,0
 core,2,1,0,0
 occ,4,1,2,0
 dump
 }
 
                                                                                 !put,molden,h2o.molden;
 

 Variables initialized (766), CPU time= 0.01 sec
 Commands  initialized (545), CPU time= 0.00 sec, 513 directives.
 Default parameters read. Elapsed time= 0.06 sec

 Checking input...
 Passed
1


                                         ***  PROGRAM SYSTEM MOLPRO  ***
                         Copyright, University College Cardiff Consultants Limited, 2008

                                    Version 2012.1 linked 30 Oct 2012 00:42:05


 **********************************************************************************************************************************
 LABEL *   h2o                                                                           
 Linux-2.6.38.6-client/b04(x86_64) 64 bit mpp version                                    DATE: 26-Sep-16          TIME: 20:19:37  
 **********************************************************************************************************************************

 SHA1:             2c68d29c09da70e1723824271fadde4bcd5f07a0
 **********************************************************************************************************************************
 SETTING R              =         0.67088000                                  
 SETTING A              =       104.45000000                                  

 Variable memory set to    8388608 words,  buffer space   230000 words

 SETTING BASIS          =    CC-PVTZ


 Recomputing integrals since basis changed


 Using spherical harmonics

 Library entry O      S cc-pVTZ              selected for orbital group  1
 Library entry O      P cc-pVTZ              selected for orbital group  1
 Library entry O      D cc-pVTZ              selected for orbital group  1
 Library entry O      F cc-pVTZ              selected for orbital group  1
 Library entry H      S cc-pVTZ              selected for orbital group  2
 Library entry H      P cc-pVTZ              selected for orbital group  2
 Library entry H      D cc-pVTZ              selected for orbital group  2

1PROGRAM * SEWARD (Integral evaluation for generally contracted gaussian basis sets)     Author: Roland Lindh, 1990

 Geometry written to block  1 of record 700

 Orientation using atomic masses  
 Molecule type: Asymmetric top,     Order of principal axis = 2
 Symmetry elements: X,Y
 Rotational constants:     581.4224841   1671.4743507    891.5472729 GHz  (calculated with average atomic masses)

 Point group  C2v 



 ATOMIC COORDINATES

 NR  ATOM    CHARGE       X              Y              Z

   1  O       8.00    0.000000000    0.000000000   -0.086899562
   2  H       1.00    0.000000000    1.002081249    0.689694250
   3  H       1.00    0.000000000   -1.002081249    0.689694250

 Bond lengths in Bohr (Angstrom)

 1-2  1.267779467  1-3  1.267779467
     ( 0.670880000)     ( 0.670880000)

 Bond angles

  2-1-3  104.45000000

 NUCLEAR CHARGE:                   10
 NUMBER OF PRIMITIVE AOS:          81
 NUMBER OF SYMMETRY AOS:           74
 NUMBER OF CONTRACTIONS:           58   (  23A1  +  11B1  +  17B2  +   7A2  )
 NUMBER OF CORE ORBITALS:           1   (   1A1  +   0B1  +   0B2  +   0A2  )
 NUMBER OF VALENCE ORBITALS:        6   (   3A1  +   1B1  +   2B2  +   0A2  )


 NUCLEAR REPULSION ENERGY   13.11945305


 Eigenvalues of metric

         1 0.130E-02 0.151E-02 0.668E-02 0.186E-01 0.378E-01 0.771E-01 0.101E+00 0.163E+00
         2 0.162E-01 0.707E-01 0.999E-01 0.254E+00 0.392E+00 0.553E+00 0.107E+01 0.136E+01
         3 0.165E-02 0.232E-02 0.195E-01 0.314E-01 0.392E-01 0.665E-01 0.138E+00 0.236E+00
         4 0.339E-01 0.181E+00 0.347E+00 0.565E+00 0.984E+00 0.141E+01 0.245E+01


 Contracted 2-electron integrals neglected if value below      1.0D-11
 AO integral compression algorithm  1   Integral accuracy      1.0D-11

     3.670 MB (compressed) written to integral file ( 86.2%)

     Node minimum: 0.524 MB, node maximum: 0.524 MB


 NUMBER OF SORTED TWO-ELECTRON INTEGRALS:      55303.     BUFFER LENGTH:  32768
 NUMBER OF SEGMENTS:   1  SEGMENT LENGTH:      55303      RECORD LENGTH: 524288

 Memory used in sort:       0.61 MW

 SORT1 READ      562034. AND WROTE       51517. INTEGRALS IN      1 RECORDS. CPU TIME:     0.02 SEC, REAL TIME:     0.15 SEC
 SORT2 READ      366995. AND WROTE      396151. INTEGRALS IN     14 RECORDS. CPU TIME:     0.00 SEC, REAL TIME:     0.01 SEC

 Node minimum:       55303.  Node maximum:       57357. integrals

 OPERATOR DM      FOR CENTER  0  COORDINATES:    0.000000    0.000000    0.000000


 **********************************************************************************************************************************
 DATASETS  * FILE   NREC   LENGTH (MB)   RECORD NAMES
              1      18        6.10       500      610      700      900      950      970     1000      129      960     1100   
                                          VAR    BASINP    GEOM    SYMINP    ZMAT    AOBASIS   BASIS     P2S    ABASIS      S 
                                         1400     1410     1200     1210     1080     1600     1650     1700   
                                           T        V       H0       H01     AOSYM     SMH    MOLCAS    OPER   

 PROGRAMS   *        TOTAL       INT
 CPU TIMES  *         0.20      0.11
 REAL TIME  *         2.20 SEC
 DISK USED  *        31.73 MB      
 GA USED    *         0.00 MB       (max)       0.00 MB       (current)
 **********************************************************************************************************************************

1PROGRAM * RHF-SCF (CLOSED SHELL)       Authors: W. Meyer, H.-J. Werner


 NUMBER OF ELECTRONS:       5+    5-    SPACE SYMMETRY=1    SPIN SYMMETRY: Singlet 
 CONVERGENCE THRESHOLDS:    1.00E-05 (Density)    1.00E-07 (Energy)
 MAX. NUMBER OF ITERATIONS:       60
 INTERPOLATION TYPE:            DIIS
 INTERPOLATION STEPS:              2 (START)      1 (STEP)
 LEVEL SHIFTS:                 -1.00 (CLOSED) -0.50 (OPEN) 



 Orbital guess generated from atomic densities. Full valence occupancy:    4   1   2   0

 Molecular orbital dump at record        2100.2

 ITERATION    DDIFF          GRAD             ENERGY        2-EL.EN.            DIPOLE MOMENTS         DIIS   ORB.
    1      0.000D+00      0.000D+00       -75.68534087     83.741977    0.00000    0.00000    0.79890    0    start
    2      0.000D+00      0.299D-01       -75.72880845     81.281444    0.00000    0.00000    0.69056    1    diag
    3      0.360D-01      0.646D-02       -75.73135134     81.286982    0.00000    0.00000    0.68301    2    diag
    4      0.643D-02      0.278D-02       -75.73224339     81.228404    0.00000    0.00000    0.68443    3    diag
    5      0.419D-02      0.799D-03       -75.73234095     81.218094    0.00000    0.00000    0.69094    4    diag
    6      0.134D-02      0.236D-03       -75.73235145     81.216502    0.00000    0.00000    0.69446    5    diag
    7      0.525D-03      0.786D-04       -75.73235287     81.216086    0.00000    0.00000    0.69561    6    diag
    8      0.186D-03      0.242D-04       -75.73235302     81.215924    0.00000    0.00000    0.69587    7    diag
    9      0.589D-04      0.870D-05       -75.73235303     81.216000    0.00000    0.00000    0.69595    8    diag
   10      0.250D-04      0.227D-05       -75.73235304     81.215994    0.00000    0.00000    0.69597    9    orth
   11      0.608D-05      0.689D-06       -75.73235304     81.215996    0.00000    0.00000    0.69598    0    orth

 Final occupancy:   3   1   1   0

 !RHF STATE 1.1 Energy                -75.732353035853
 Nuclear energy                        13.11945305
 One-electron energy                 -129.45980404
 Two-electron energy                   40.60799796
 Virial quotient                       -0.97111813
 !RHF STATE 1.1 Dipole moment           0.00000000     0.00000000     0.69597755
 Dipole moment /Debye                   0.00000000     0.00000000     1.76888263

 ELECTRON ORBITALS
 =================


   Orb  Occ    Energy  Couls-En    Coefficients

                                   1 1s      1 1s      1 1s      1 1s      1 2pz     1 2pz     1 2pz     1 3d0     1 3d2+    1 3d0  
                                   1 3d2+    1 4f0     1 4f2+    2 1s      2 1s      2 1s      2 2pz     2 2py     2 2pz     2 2py  
                                   2 3d0     2 3d2+    2 3d1- 

   1.1   2   -20.4967  -53.9934  0.999124  0.001871  0.003462 -0.000239  0.007049 -0.003988 -0.002222  0.000048 -0.000752 -0.000299
                                 0.000251 -0.000271 -0.000311 -0.000445 -0.000410 -0.000216  0.001117  0.000903  0.000168  0.000153
                                -0.000119  0.000447 -0.000952

   2.1   2    -1.5527  -10.1302 -0.029692  0.793357 -0.011070 -0.070667  0.239284 -0.036530 -0.060185  0.002460 -0.007898 -0.006754
                                -0.007069 -0.003584 -0.004695  0.923571 -0.400497 -0.355772 -0.013947 -0.035727  0.014248 -0.000887
                                -0.003382 -0.007179  0.002738

   3.1   2    -0.6318   -8.0923 -0.009494 -0.363421  0.001719 -0.155707  0.850266 -0.044852 -0.027954  0.008525 -0.002993  0.007336
                                -0.008208 -0.000825 -0.003457  0.524584 -0.151164 -0.217881  0.011563 -0.027828  0.040690 -0.015615
                                -0.008615 -0.007676 -0.001142

   4.1   0     0.1592   -2.6573 -0.020815 -0.318176 -0.028710 -2.377747 -0.059632 -0.112567 -0.431922 -0.000488 -0.001123  0.009664
                                 0.034419  0.003219  0.000112 -0.065885  0.974742  1.504416  0.005739  0.024479 -0.238817 -0.298050
                                 0.002317 -0.006992  0.019932

   5.1   0     0.6168   -2.7750  0.115661  0.407374 -0.005243  6.323172 -0.466364  0.243775  3.261884 -0.018993  0.024979  0.159245
                                -0.093913  0.012007  0.002936 -0.233602 -4.670597 -0.594770  0.005063  0.047655  0.219274  0.846010
                                 0.025317  0.032951 -0.003955

   6.1   0     0.7736   -2.7444 -0.024377 -0.144973  0.019138 -2.233899 -0.188848  0.146688  0.173884 -0.011774 -0.012917  0.381847
                                 0.297549  0.046916  0.023959  0.492752  1.933830 -0.346181 -0.129495  0.020237 -0.960392  0.791482
                                 0.163482  0.081321  0.030554

   7.1   0     0.8710   -2.6161  0.047980 -0.257267  0.081197  2.752079 -0.242824 -0.199497 -0.506542  0.004808  0.007706 -0.302384
                                -0.170895 -0.025137  0.021047  0.179840 -0.335840 -1.174522  0.015922 -0.121638  1.608300  0.555476
                                -0.103759 -0.034928 -0.097053

   8.1   0     1.0617   -2.9614  0.031198 -0.292028  0.108183  8.202894  0.379046  1.104913  1.774305  0.004871 -0.008467  0.104456
                                 0.038902  0.003730 -0.015668 -0.467267 -5.109070 -0.685325  0.077266  0.140947  0.137577  1.375952
                                 0.072872  0.098649 -0.066156

   9.1   0     1.9619   -1.7018  0.147180  0.801597  0.128826 -3.122929  0.156102 -0.034207 -1.022847  0.027815  0.042035  0.309193
                                 1.409931  0.096408  0.118073  0.429814  2.229571 -0.264612 -0.287717 -0.157473  0.058369  0.820164
                                 0.154020  0.153125 -0.006339

                                   1 2px     1 2px     1 2px     1 3d1+    1 3d1+    1 4f1+    1 4f3+    2 2px     2 2px     2 3d1+ 
                                   2 3d2- 

   1.2   2    -0.5392   -7.9211  0.919956 -0.022445  0.039199  0.008152  0.014304  0.001262 -0.003445  0.030764  0.051740 -0.006247
                                -0.009703

   2.2   0     0.7218   -3.1580 -0.562596 -0.106462  1.971881 -0.022803  0.196426  0.015434 -0.019247 -0.017589 -0.858095  0.031188
                                 0.082924

   3.2   0     1.0506   -2.7264 -0.344585 -0.898899 -0.862189  0.003717 -0.216424 -0.027940  0.054565  0.041160  1.821185 -0.102313
                                -0.200914

   4.2   0     2.1026   -1.4325  0.116120  0.950264  1.232349  0.023311  1.636380  0.058279 -0.113585 -0.218394 -1.806791  0.254392
                                 0.286561

   5.2   0     3.3757    1.2114 -0.055789  0.610617  0.405920  0.032048  0.894234  0.076392 -0.028783  0.035544 -0.688863 -0.589922
                                 0.929450

   6.2   0     3.7760    1.4920 -1.530780  2.897060  0.939458  0.116691  0.386559  0.104038 -0.253805  0.269585 -1.471319  0.939584
                                 0.747884

   7.2   0     4.3006    0.4178  2.737557 -2.697179 -0.503282  0.041346 -0.399330  0.095468 -0.115392  0.631834 -0.038308  0.253991
                                 0.043809

                                   1 2py     1 2py     1 2py     1 3d1-    1 3d1-    1 4f1-    1 4f3-    2 1s      2 1s      2 1s   
                                   2 2py     2 2pz     2 2py     2 2pz     2 3d1-    2 3d0     2 3d2+ 

   1.3   2    -0.9014   -8.7149  0.830272 -0.115506 -0.196469  0.018378  0.007034  0.002095 -0.002470  1.230191 -0.243978 -0.430549
                                -0.025754 -0.039240 -0.038349 -0.047079  0.014095  0.007370 -0.002572

   2.3   0     0.2162   -2.2642 -0.241211 -0.060951 -0.987385 -0.000077 -0.033092 -0.001929 -0.001145 -0.126253  0.901818  3.704354
                                 0.011050  0.025356 -0.328206 -0.284808  0.014899 -0.002609 -0.018478

   3.3   0     0.6389   -2.5954 -0.053149  0.551003  3.377337 -0.014209  0.286641  0.027205 -0.007726 -1.014076 -4.573563 -0.982277
                                 0.135346  0.055671  0.695059  0.503962 -0.040074  0.023534  0.036730

   4.3   0     0.8768   -2.7941 -0.625669  0.376209  2.663775  0.005840  0.074538 -0.005355  0.009663  0.038273 -3.069053 -3.035741
                                 0.020710 -0.000446  1.608811  1.500088 -0.091951 -0.020534  0.073547

   5.3   0     1.3491   -1.2405 -0.072057 -0.224694 -1.886501  0.003429  0.080935  0.062090  0.032188  0.029478 -0.808194  0.319041
                                -0.024150  0.019884  2.893002 -1.595180  0.042269  0.198426  0.197490

   6.3   0     1.7982   -1.1531 -0.655335 -2.517721 -3.343691 -0.116807 -0.111776  0.014104  0.017125 -0.210204 13.209531  1.511108
                                -0.244343 -0.247136 -4.925393 -3.450492  0.348859  0.052676 -0.244744

   7.3   0     1.8723   -1.8394 -0.289871  0.594433  1.741039  0.071148  1.370950  0.125351 -0.022887  0.370402 -4.300547 -0.009846
                                 0.289861  0.169615  0.460625 -0.208234  0.064240  0.127187  0.038460

                                   1 3d2-    1 3d2-    1 4f2-    2 2px     2 2px     2 3d2-    2 3d1+ 

   1.4   0     0.9091   -2.4683  0.018029 -0.363197 -0.069628  0.049275  1.744656 -0.151821 -0.151957

   2.4   0     2.1164   -1.3403  0.044933  1.884747  0.189649 -0.259955 -1.723478  0.362432  0.278669

   3.4   0     3.6922    1.8900  0.125507  0.355128  0.221582  0.657836 -1.043600  0.407321  0.845825

   4.4   0     4.3802    3.3945  0.043025 -0.405369  0.160114  0.221127 -0.382591  1.214815 -0.603449

   5.4   0     4.7566    3.2406 -0.140530  1.968488  0.265438 -1.380300 -1.315525  1.114801  1.243536

   6.4   0     6.7367    5.7717 -0.635208  1.179423  1.162440 -0.926461 -0.510441  0.128242  0.044302

 HOMO      1.2    -0.539241 =     -14.6735eV
 LUMO      4.1     0.159169 =       4.3312eV
 LUMO-HOMO         0.698410 =      19.0047eV


 **********************************************************************************************************************************
 DATASETS  * FILE   NREC   LENGTH (MB)   RECORD NAMES
              1      18        6.10       500      610      700      900      950      970     1000      129      960     1100   
                                          VAR    BASINP    GEOM    SYMINP    ZMAT    AOBASIS   BASIS     P2S    ABASIS      S 
                                         1400     1410     1200     1210     1080     1600     1650     1700   
                                           T        V       H0       H01     AOSYM     SMH    MOLCAS    OPER   

              2       4        0.33       700     1000      520     2100   
                                         GEOM     BASIS   MCVARS     RHF  

 PROGRAMS   *        TOTAL       RHF       INT
 CPU TIMES  *         0.31      0.09      0.11
 REAL TIME  *         3.74 SEC
 DISK USED  *        77.58 MB      
 SF USED    *         0.00 MB      
 GA USED    *         0.00 MB       (max)       0.00 MB       (current)
 **********************************************************************************************************************************

1PROGRAM * FCI (Full CI)     Author: P.J. Knowles, 1984

 ***  Initialisation ***
 
 Molecular orbitals read from record     2100.2  Type=RHF/CANONICAL (state 1.1)
 
 Frozen orbitals:              3 (  2  1  0  0  0  0  0  0)
 Active orbitals:              4 (  2  0  2  0  0  0  0  0)
 Active electrons:             4
 Spin quantum number:          0.0
 Orbital pairs:                     6       0       4       0       0       0       0       0
 Strings:                           2       0       4       0       0       0       0       0
                                    2       0       4       0       0       0       0       0
 Determinants:                     20       0      16       0       0       0       0       0

 Load integrals                0.5 sec
 Transform integrals           0.7 sec
 Storage for integrals:             88
 Remaining memory:             8385024

 Core energy:             -68.39985088
 Run Hamiltonian processor DAVIDSON
 Symmetry:                   1
 Trial vector:                  0.00
 Result vector:                 0.00
 Maximum iterations:           90
 Convergence threshold:         0.0000100
 RHS vector:                    0.00
 Hamiltonian shift:             0.0000000
 Output threshold:              0.0500000
 Options:                        0
 Number of roots:             1

 Hamiltonian diagonaliser entered at time      0.98

 Initial configuration generated:
       5      1.0000000    -75.7323530

 It  Tr    CPU  Convergence   Energy       Pop     dE(next)

  1   1    1.0  1.00000000   -75.73235304
                                           0.15 -0.00017459 -0.00017073
  2   1    1.0  0.00883177   -75.73251934
                                           0.35 -0.00000391 -0.00000366
  3   1    1.0  0.00164548   -75.73252300
                                           0.20 -0.00000026 -0.00000022
  4   1    1.0  0.00031356   -75.73252322
                                           0.30 -0.00000003 -0.00000003
  5   1    1.0  0.00015344   -75.73252325
                                           0.30  0.00000000  0.00000000
  6   1    1.0  0.00004000   -75.73252325
                                           0.20  0.00000000  0.00000000
  7   1    1.0  0.00000670   -75.73252325


RESULTS FOR STATE 1.1
=====================

 Correlation energy                    -0.000170218385
 !FCI STATE 1.1 Energy                -75.732523254237
 CI Vector (threshold= 0.500E-01)
       0.999959349919  1  2  3  4  6  1  2  3  4  6
 /EOF
 !FCI STATE 1.1 Dipole moment           0.00000000     0.00000000     0.69532302
 Dipole moment /Debye                   0.00000000     0.00000000     1.76721908


 **********************************************************************************************************************************
 DATASETS  * FILE   NREC   LENGTH (MB)   RECORD NAMES
              1      18        6.10       500      610      700      900      950      970     1000      129      960     1100   
                                          VAR    BASINP    GEOM    SYMINP    ZMAT    AOBASIS   BASIS     P2S    ABASIS      S 
                                         1400     1410     1200     1210     1080     1600     1650     1700   
                                           T        V       H0       H01     AOSYM     SMH    MOLCAS    OPER   

              2       4        0.33       700     1000      520     2100   
                                         GEOM     BASIS   MCVARS     RHF  

 PROGRAMS   *        TOTAL       FCI       RHF       INT
 CPU TIMES  *         0.83      0.52      0.09      0.11
 REAL TIME  *         7.23 SEC
 DISK USED  *        77.58 MB      
 SF USED    *         0.00 MB      
 GA USED    *         0.00 MB       (max)       0.00 MB       (current)
 **********************************************************************************************************************************

1PROGRAM * FCI (Full CI)     Author: P.J. Knowles, 1984

 ***  Initialisation ***
 
 Molecular orbitals read from record     2100.2  Type=RHF/CANONICAL (state 1.1)
 
 Frozen orbitals:              3 (  2  1  0  0  0  0  0  0)
 Active orbitals:              4 (  2  0  2  0  0  0  0  0)
 Active electrons:             4
 Spin quantum number:          0.0

 Transformed integrals will be written to file FCIDUMP (relative to TMPDIR)
 File format: FCIDUMP.

 Load integrals                1.0 sec
 Transform integrals           1.1 sec
 Storage for integrals:             88
 Remaining memory:             8385024

 Core energy:             -68.39985088
 Run Hamiltonian processor DUMP    
 Symmetry:                   1
 Trial vector:                  0.00
 Result vector:                 0.00
 Maximum iterations:           90
 Convergence threshold:         0.0000100
 RHS vector:                    0.00
 Hamiltonian shift:             0.0000000
 Output threshold:              0.0500000
 Options:                        0
 Number of roots:             1


 **********************************************************************************************************************************
 DATASETS  * FILE   NREC   LENGTH (MB)   RECORD NAMES
              1      18        6.10       500      610      700      900      950      970     1000      129      960     1100   
                                          VAR    BASINP    GEOM    SYMINP    ZMAT    AOBASIS   BASIS     P2S    ABASIS      S 
                                         1400     1410     1200     1210     1080     1600     1650     1700   
                                           T        V       H0       H01     AOSYM     SMH    MOLCAS    OPER   

              2       4        0.33       700     1000      520     2100   
                                         GEOM     BASIS   MCVARS     RHF  

 PROGRAMS   *        TOTAL       FCI       FCI       RHF       INT
 CPU TIMES  *         2.25      0.52      0.52      0.09      0.11
 REAL TIME  *         9.34 SEC
 DISK USED  *        77.58 MB      
 SF USED    *         0.00 MB      
 GA USED    *         0.00 MB       (max)       0.00 MB       (current)
 **********************************************************************************************************************************

        FCI             RHF-SCF 
    -75.73252325    -75.73235304
 **********************************************************************************************************************************
 Variable memory released
